# vtk DataFile Version 3.0
vtk output
ASCII
DATASET POLYDATA
POINTS 3020 float
176.8 229.84 229.648 176.8 229.16 229.84 175.537 229.84 229.84 
181.22 229.84 229.552 181.22 228.735 229.84 184.535 229.84 229.84 
172.38 234.26 229.257 172.38 231.849 229.84 170.17 234.26 229.84 
176.8 234.26 228.661 181.22 234.26 228.661 185.64 230.471 229.84 
185.64 234.26 229.257 188.051 234.26 229.84 167.96 238.68 229.644 
167.96 237.575 229.84 167.469 238.68 229.84 172.38 238.68 228.549 
176.8 238.68 228.132 181.22 238.68 228.233 185.64 238.68 228.956 
188.7 238.68 229.84 167.96 243.1 229.343 166.66 243.1 229.84 
172.38 243.1 228.316 176.8 243.1 227.831 181.22 243.1 228.132 
185.64 243.1 229.054 188.36 243.1 229.84 167.96 247.52 229.443 
166.92 247.52 229.84 172.38 247.52 228.434 176.8 247.52 228.132 
181.22 247.52 228.449 185.64 247.52 229.447 186.903 247.52 229.84 
167.96 250.467 229.84 168.844 251.94 229.84 172.38 251.94 229.054 
176.8 251.94 228.835 181.22 251.94 229.16 184.033 251.94 229.84 
185.64 249.73 229.84 172.38 255.476 229.84 176.8 256.36 229.84 
181.22 254.753 229.84 181.22 207.74 238.407 181.22 207.23 238.68 
178.568 207.74 238.68 185.64 207.74 238.407 185.64 207.23 238.68 
188.955 207.74 238.68 172.38 212.16 237.729 172.38 210.151 238.68 
168.98 212.16 238.68 176.8 212.16 236.931 176.8 208.182 238.68 
181.22 212.16 236.594 185.64 212.16 236.495 190.06 207.961 238.68 
190.06 212.16 236.834 194.48 212.16 237.539 194.48 209.634 238.68 
198.9 212.16 238.68 167.96 216.58 237.19 167.96 212.897 238.68 
163.816 216.58 238.68 172.38 216.58 235.976 176.8 216.58 235.188 
181.22 216.58 234.827 185.64 216.58 234.813 190.06 216.58 235.188 
194.48 216.58 235.976 198.9 216.58 237.126 203.32 216.58 238.68 
163.54 221 237.138 163.54 216.856 238.68 160.051 221 238.68 
167.96 221 235.586 172.38 221 234.321 176.8 221 233.48 
181.22 221 233.055 185.64 221 233.22 190.06 221 233.7 
194.48 221 234.713 198.9 221 236.007 203.32 221 237.623 
205.53 221 238.68 159.12 225.42 237.549 159.12 222.179 238.68 
157.094 225.42 238.68 163.54 225.42 235.62 167.96 225.42 234.007 
172.38 225.42 232.593 176.8 225.42 231.546 181.22 225.42 231.287 
185.64 225.42 231.546 190.06 225.42 232.366 194.48 225.42 233.7 
198.9 225.42 235.188 203.32 225.42 236.912 207.109 225.42 238.68 
154.7 229.84 238.68 159.12 229.84 236.279 163.54 229.84 234.322 
167.96 229.84 232.387 172.38 229.84 230.707 185.64 229.84 230.02 
190.06 229.84 231.419 194.48 229.84 233.055 198.9 229.84 234.777 
203.32 229.84 236.57 207.74 228.735 238.68 207.74 229.84 238.588 
207.904 229.84 238.68 154.7 234.26 237.64 153.227 234.26 238.68 
159.12 234.26 235.307 163.54 234.26 233.155 167.96 234.26 230.88 
190.06 234.26 230.69 194.48 234.26 232.741 198.9 234.26 234.547 
203.32 234.26 236.37 207.74 234.26 238.404 208.25 234.26 238.68 
154.7 238.68 237.063 152.332 238.68 238.68 159.12 238.68 234.628 
163.54 238.68 232.279 190.06 238.68 230.533 194.48 238.68 232.741 
198.9 238.68 234.609 203.32 238.68 236.396 207.74 238.68 238.404 
208.25 238.68 238.68 154.7 243.1 236.825 152.016 243.1 238.68 
159.12 243.1 234.386 163.54 243.1 231.769 190.06 243.1 230.707 
194.48 243.1 232.968 198.9 243.1 234.94 203.32 243.1 236.716 
207.74 243.1 238.68 154.7 247.52 236.934 152.174 247.52 238.68 
159.12 247.52 234.513 163.54 247.52 231.892 190.06 247.52 231.447 
194.48 247.52 233.555 198.9 247.52 235.406 203.32 247.52 237.143 
206.688 247.52 238.68 154.7 251.94 237.494 153.079 251.94 238.68 
159.12 251.94 235.047 163.54 251.94 232.639 167.96 251.94 230.208 
185.64 251.94 230.547 190.06 251.94 232.449 194.48 251.94 234.321 
198.9 251.94 236.08 203.32 251.94 237.834 205.128 251.94 238.68 
154.7 256.36 238.467 154.415 256.36 238.68 159.12 256.36 235.925 
163.54 256.36 233.724 167.96 256.36 231.734 172.38 256.36 230.208 
181.22 256.36 230.533 185.64 256.36 231.974 190.06 256.36 233.61 
194.48 256.36 235.211 198.9 256.36 236.912 203.32 256.36 238.68 
154.7 257.04 238.68 156.726 260.78 238.68 159.12 260.78 237.243 
163.54 260.78 235.096 167.96 260.78 233.376 172.38 260.78 232.197 
176.8 260.78 231.821 181.22 260.78 232.304 185.64 260.78 233.35 
190.06 260.78 234.725 194.48 260.78 236.213 198.9 260.78 237.834 
200.794 260.78 238.68 159.12 264.884 238.68 159.341 265.2 238.68 
163.54 265.2 236.606 167.96 265.2 235.026 172.38 265.2 233.949 
176.8 265.2 233.629 181.22 265.2 233.892 185.64 265.2 234.777 
190.06 265.2 235.944 194.48 265.2 237.335 198.12 265.2 238.68 
198.9 264.095 238.68 163.54 269.62 238.274 162.833 269.62 238.68 
167.96 269.62 236.68 172.38 269.62 235.554 176.8 269.62 235.23 
181.22 269.62 235.418 185.64 269.62 236.14 190.06 269.62 237.159 
194.48 269.62 238.589 194.701 269.62 238.68 163.54 270.462 238.68 
167.297 274.04 238.68 167.96 274.04 238.389 172.38 274.04 237.32 
176.8 274.04 236.854 181.22 274.04 236.969 185.64 274.04 237.575 
190.06 274.04 238.59 190.336 274.04 238.68 194.48 269.896 238.68 
167.96 274.643 238.68 172.38 277.297 238.68 176.063 278.46 238.68 
176.8 278.46 238.59 181.22 278.46 238.592 181.851 278.46 238.68 
185.64 276.987 238.68 190.06 274.273 238.68 176.8 278.652 238.68 
181.22 278.652 238.68 172.38 198.9 246.737 172.38 197.869 247.52 
170.17 198.9 247.52 176.8 198.9 245.683 176.8 196.461 247.52 
181.22 198.9 245.163 181.22 195.626 247.52 185.64 198.9 245.163 
185.64 195.626 247.52 190.06 198.9 245.683 190.06 196.374 247.52 
194.48 198.9 246.613 194.48 197.681 247.52 197.695 198.9 247.52 
163.54 203.32 247.407 163.54 203.162 247.52 163.348 203.32 247.52 
167.96 203.32 245.433 167.96 200.189 247.52 172.38 203.32 243.826 
176.8 203.32 242.815 181.22 203.32 242.126 185.64 203.32 242.126 
190.06 203.32 242.672 194.48 203.32 243.712 198.9 199.452 247.52 
198.9 203.32 244.942 203.32 203.32 246.613 203.32 201.96 247.52 
205.4 203.32 247.52 159.12 207.74 247.287 159.12 207.372 247.52 
158.793 207.74 247.52 163.54 207.74 244.83 167.96 207.74 242.725 
172.38 207.74 240.76 176.8 207.74 239.082 190.06 207.74 238.886 
194.48 207.74 240.304 198.9 207.74 242.186 203.32 207.74 244.09 
207.74 205.128 247.52 207.74 207.74 246.028 210.613 207.74 247.52 
159.12 212.16 245.013 155.303 212.16 247.52 163.54 212.16 242.311 
167.96 212.16 239.283 203.32 212.16 241.463 207.74 212.16 244.01 
212.16 209.56 247.52 212.16 212.16 246.401 213.928 212.16 247.52 
154.7 216.58 245.779 154.7 212.989 247.52 152.572 216.58 247.52 
159.12 216.58 242.537 163.54 216.58 238.89 207.74 216.58 242.186 
212.16 216.58 244.977 216.379 216.58 247.52 150.28 221 247.124 
150.28 220.22 247.52 149.878 221 247.52 154.7 221 243.488 
159.12 221 239.502 207.74 221 240.625 212.16 221 243.88 
216.58 217.071 247.52 216.58 221 246.658 217.799 221 247.52 
150.28 225.42 245.31 147.994 225.42 247.52 154.7 225.42 241.125 
207.74 225.42 239.269 212.16 225.42 243.1 216.58 225.42 245.953 
218.96 225.42 247.52 150.28 229.84 243.755 146.515 229.84 247.52 
212.16 229.84 242.448 216.58 229.84 245.454 219.762 229.84 247.52 
145.86 234.26 247.078 145.86 232.366 247.52 145.511 234.26 247.52 
150.28 234.26 242.363 212.16 234.26 242.069 216.58 234.26 245.077 
220.15 234.26 247.52 145.86 238.68 246.589 145.143 238.68 247.52 
150.28 238.68 241.353 212.16 238.68 242.069 216.58 238.68 245.163 
219.98 238.68 247.52 145.86 243.1 246.556 145.162 243.1 247.52 
150.28 243.1 241.052 212.16 243.1 242.448 216.58 243.1 245.426 
219.527 243.1 247.52 145.86 247.52 247.029 145.52 247.52 247.52 
150.28 247.52 241.267 207.74 247.52 239.601 212.16 247.52 243.1 
216.58 247.52 246.047 218.495 247.52 247.52 145.86 249.73 247.52 
146.334 251.94 247.52 150.28 251.94 242.497 207.74 251.94 240.848 
212.16 251.94 244.061 216.58 251.94 247.067 217.133 251.94 247.52 
150.28 256.36 244.134 147.714 256.36 247.52 207.74 256.36 242.276 
212.16 256.36 245.25 215.39 256.36 247.52 216.58 253.547 247.52 
150.28 260.78 246.186 149.24 260.78 247.52 154.7 260.78 241.052 
203.32 260.78 240.682 207.74 260.78 243.75 212.16 260.78 246.513 
213.486 260.78 247.52 150.28 263.306 247.52 151.262 265.2 247.52 
154.7 265.2 243.88 159.12 265.2 238.913 198.9 265.2 239.257 
203.32 265.2 242.53 207.74 265.2 245.163 211.423 265.2 247.52 
212.16 263.84 247.52 154.7 269.62 246.621 153.845 269.62 247.52 
159.12 269.62 242.548 198.9 269.62 241.576 203.32 269.62 244.082 
207.74 269.62 246.55 209.161 269.62 247.52 154.7 271.016 247.52 
156.828 274.04 247.52 159.12 274.04 245.422 163.54 274.04 241.747 
194.48 274.04 241.091 198.9 274.04 243.49 203.32 274.04 245.641 
206.587 274.04 247.52 207.74 272.272 247.52 159.12 277.68 247.52 
159.697 278.46 247.52 163.54 278.46 244.622 167.96 278.46 241.849 
172.38 278.46 239.62 185.64 278.46 239.762 190.06 278.46 241.472 
194.48 278.46 243.23 198.9 278.46 245.17 203.32 278.46 247.215 
203.811 278.46 247.52 163.54 282.88 247.152 163.066 282.88 247.52 
167.96 282.88 244.617 172.38 282.88 242.815 176.8 282.88 241.921 
181.22 282.88 241.868 185.64 282.88 242.624 190.06 282.88 243.837 
194.48 282.88 245.199 198.9 282.88 247.012 199.952 282.88 247.52 
203.32 279.158 247.52 163.54 283.483 247.52 167.191 287.3 247.52 
167.96 287.3 247.067 172.38 287.3 245.339 176.8 287.3 244.496 
181.22 287.3 244.42 185.64 287.3 244.901 190.06 287.3 245.875 
194.48 287.3 247.225 195.217 287.3 247.52 198.9 283.985 247.52 
167.96 288.037 247.52 172.38 291.299 247.52 173.264 291.72 247.52 
176.8 291.72 246.716 181.22 291.72 246.538 185.64 291.72 247.04 
187.649 291.72 247.52 190.06 290.515 247.52 194.48 287.853 247.52 
176.8 293.03 247.52 181.22 293.357 247.52 185.64 292.539 247.52 
172.38 190.06 256.36 176.8 190.06 254.988 176.8 188.89 256.36 
181.22 190.06 254.344 181.22 188.319 256.36 185.64 190.06 254.308 
185.64 188.319 256.36 190.06 190.06 254.988 190.06 188.89 256.36 
194.48 190.06 256.07 194.48 189.821 256.36 195.284 190.06 256.36 
167.96 194.48 254.025 167.96 192.417 256.36 164.32 194.48 256.36 
172.38 194.48 251.756 176.8 194.48 250.132 181.22 194.48 249.029 
185.64 194.48 249.029 190.06 194.48 249.931 194.48 194.48 251.387 
198.9 191.481 256.36 198.9 194.48 253.25 203.32 194.48 255.201 
[...]
POINT_DATA 3020
SCALARS scalars float
LOOKUP_TABLE default
200 200 200 200 200 200 200 200 200 
200 200 200 200 200 200 200 200 200 
200 200 200 200 200 200 200 200 200 
200 200 200 200 200 200 200 200 200 
200 200 200 200 200 200 200 200 200 
200 200 200 200 200 200 200 200 200 
200 200 200 200 200 200 200 200 200 
200 200 200 200 200 200 200 200 200 
200 200 200 200 200 200 200 200 200 
200 200 200 200 200 200 200 200 200 
200 200 200 200 200 200 200 200 200 
200 200 200 200 200 200 200 200 200 
200 200 200 200 200 200 200 200 200 
200 200 200 200 200 200 200 200 200 
200 200 200 200 200 200 200 200 200 
200 200 200 200 200 200 200 200 200 
200 200 200 200 200 200 200 200 200 
200 200 200 200 200 200 200 200 200 
200 200 200 200 200 200 200 200 200 
200 200 200 200 200 200 200 200 200 
200 200 200 200 200 200 200 200 200 
200 200 200 200 200 200 200 200 200 
200 200 200 200 200 200 200 200 200 
200 200 200 200 200 200 200 200 200 
200 200 200 200 200 200 200 200 200 
200 200 200 200 200 200 200 200 200 
200 200 200 200 200 200 200 200 200 
200 200 200 200 200 200 200 200 200 
200 200 200 200 200 200 200 200 200 
200 200 200 200 200 200 200 200 200 
200 200 200 200 200 200 200 200 200 
200 200 200 200 200 200 200 200 200 
200 200 200 200 200 200 200 200 200 
200 200 200 200 200 200 200 200 200 
200 200 200 200 200 200 200 200 200 
200 200 200 200 200 200 200 200 200 
200 200 200 200 200 200 200 200 200 
200 200 200 200 200 200 200 200 200 
200 200 200 200 200 200 200 200 200 
200 200 200 200 200 200 200 200 200 
200 200 200 200 200 200 200 200 200 
200 200 200 200 200 200 200 200 200 
200 200 200 200 200 200 200 200 200 
200 200 200 200 200 200 200 200 200 
200 200 200 200 200 200 200 200 200 
200 200 200 200 200 200 200 200 200 
200 200 200 200 200 200 200 200 200 
200 200 200 200 200 200 200 200 200 
200 200 200 200 200 200 200 200 200 
200 200 200 200 200 200 200 200 200 
200 200 200 200 200 200 200 200 200 
200 200 200 200 200 200 200 200 200 
200 200 200 200 200 200 200 200 200 
200 200 200 200 200 200 200 200 200 
200 200 200 200 200 200 200 200 200 
200 200 200 200 200 200 200 200 200 
200 200 200 200 200 200 200 200 200 
200 200 200 200 200 200 200 200 200 
200 200 200 200 200 200 200 200 200 
200 200 200 200 200 200 200 200 200 
200 200 200 200 200 200 200 200 200 
200 200 200 200 200 200 200 200 200 
200 200 200 200 200 200 200 200 200 
200 200 200 200 200 200 200 200 200 
200 200 200 200 200 200 200 200 200 
200 200 200 200 200 200 200 200 200 
200 200 200 200 200 200 200 200 200 
200 200 200 200 200 200 200 200 200 
200 200 200 200 200 200 200 200 200 
200 200 200 200 200 200 200 200 200 
200 200 200 200 200 200 200 200 200 
200 200 200 200 200 200 200 200 200 
200 200 200 200 200 200 200 200 200 
200 200 200 200 200 200 200 200 200 
200 200 200 200 200 200 200 200 200 
200 200 200 200 200 200 200 200 200 
200 200 200 200 200 200 200 200 200 
200 200 200 200 200 200 200 200 200 
200 200 200 200 200 200 200 200 200 
200 200 200 200 200 200 200 200 200 
200 200 200 200 200 200 200 200 200 
200 200 200 200 200 200 200 200 200 
200 200 200 200 200 200 200 200 200 
200 200 200 200 200 200 200 200 200 
200 200 200 200 200 200 200 200 200 
200 200 200 200 200 200 200 200 200 
200 200 200 200 200 200 200 200 200 
200 200 200 200 200 200 200 200 200 
200 200 200 200 200 200 200 200 200 
200 200 200 200 200 200 200 200 200 
200 200 200 200 200 200 200 200 200 
200 200 200 200 200 200 200 200 200 
200 200 200 200 200 200 200 200 200 
200 200 200 200 200 200 200 200 200 
200 200 200 200 200 200 200 200 200 
200 200 200 200 200 200 200 200 200 
200 200 200 200 200 200 200 200 200 
200 200 200 200 200 200 200 200 200 
200 200 200 200 200 200 200 200 200 
200 200 200 200 200 200 200 200 200 
200 200 200 200 200 200 200 200 200 
200 200 200 200 200 200 200 200 200 
200 200 200 200 200 200 200 200 200 
200 200 200 200 200 200 200 200 200 
200 200 200 200 200 200 200 200 200 
200 200 200 200 200 200 200 200 200 
200 200 200 200 200 200 200 200 200 
200 200 200 200 200 200 200 200 200 
200 200 200 200 200 200 200 200 200 
200 200 200 200 200 200 200 200 200 
200 200 200 200 200 200 200 200 200 
200 200 200 200 200 200 200 200 200 
200 200 200 200 200 200 200 200 200 
200 200 200 200 200 200 200 200 200 
200 200 200 200 200 200 200 200 200 
200 200 200 200 200 200 200 200 200 
200 200 200 200 200 200 200 200 200 
200 200 200 200 200 200 200 200 200 
200 200 200 200 200 200 200 200 200 
200 200 200 200 200 200 200 200 200 
200 200 200 200 200 200 200 200 200 
200 200 200 200 200 200 200 200 200 
200 200 200 200 200 200 200 200 200 
200 200 200 200 200 200 200 200 200 
200 200 200 200 200 200 200 200 200 
200 200 200 200 200 200 200 200 200 
200 200 200 200 200 200 200 200 200 
200 200 200 200 200 200 200 200 200 
200 200 200 200 200 200 200 200 200 
200 200 200 200 200 200 200 200 200 
200 200 200 200 200 200 200 200 200 
200 200 200 200 200 200 200 200 200 
200 200 200 200 200 200 200 200 200 
200 200 200 200 200 200 200 200 200 
200 200 200 200 200 200 200 200 200 
200 200 200 200 200 200 200 200 200 
200 200 200 200 200 200 200 200 200 
200 200 200 200 200 200 200 200 200 
200 200 200 200 200 200 200 200 200 
200 200 200 200 200 200 200 200 200 
200 200 200 200 200 200 200 200 200 
200 200 200 200 200 200 200 200 200 
200 200 200 200 200 200 200 200 200 
200 200 200 200 200 200 200 200 200 
200 200 200 200 200 200 200 200 200 
200 200 200 200 200 200 200 200 200 
200 200 200 200 200 200 200 200 200 
200 200 200 200 200 200 200 200 200 
200 200 200 200 200 200 200 200 200 
200 200 200 200 200 200 200 200 200 
200 200 200 200 200 200 200 200 200 
200 200 200 200 200 200 200 200 200 
200 200 200 200 200 200 200 200 200 
200 200 200 200 200 200 200 200 200 
200 200 200 200 200 200 200 200 200 
200 200 200 200 200 200 200 200 200 
200 200 200 200 200 200 200 200 200 
200 200 200 200 200 200 200 200 200 
200 200 200 200 200 200 200 200 200 
200 200 200 200 200 200 200 200 200 
200 200 200 200 200 200 200 200 200 
200 200 200 200 200 200 200 200 200 
200 200 200 200 200 200 200 200 200 
200 200 200 200 200 200 200 200 200 
200 200 200 200 200 200 200 200 200 
200 200 200 200 200 200 200 200 200 
200 200 200 200 200 200 200 200 200 
200 200 200 200 200 200 200 200 200 
200 200 200 200 200 200 200 200 200 
200 200 200 200 200 200 200 200 200 
200 200 200 200 200 200 200 200 200 
200 200 200 200 200 200 200 200 200 
200 200 200 200 200 200 200 200 200 
200 200 200 200 200 200 200 200 200 
200 200 200 200 200 200 200 200 200 
200 200 200 200 200 200 200 200 200 
200 200 200 200 200 200 200 200 200 
200 200 200 200 200 200 200 200 200 
200 200 200 200 200 200 200 200 200 
200 200 200 200 200 200 200 200 200 
200 200 200 200 200 200 200 200 200 
200 200 200 200 200 200 200 200 200 
200 200 200 200 200 200 200 200 200 
200 200 200 200 200 200 200 200 200 
200 200 200 200 200 200 200 200 200 
200 200 200 200 200 200 200 200 200 
200 200 200 200 200 200 200 200 200 
200 200 200 200 200 200 200 200 200 
200 200 200 200 200 200 200 200 200 
200 200 200 200 200 200 200 200 200 
200 200 200 200 200 200 200 200 200 
200 200 200 200 200 200 200 200 200 
200 200 200 200 200 200 200 200 200 
200 200 200 200 200 200 200 200 200 
200 200 200 200 200 200 200 200 200 
200 200 200 200 200 200 200 200 200 
200 200 200 200 200 200 200 200 200 
200 200 200 200 200 200 200 200 200 
200 200 200 200 200 200 200 200 200 
200 200 200 200 200 200 200 200 200 
200 200 200 200 200 200 200 200 200 
200 200 200 200 200 200 200 200 200 
200 200 200 200 200 200 200 200 200 
200 200 200 200 200 200 200 200 200 
200 200 200 200 200 200 200 200 200 
200 200 200 200 200 200 200 200 200 
200 200 200 200 200 200 200 200 200 
200 200 200 200 200 200 200 200 200 
200 200 200 200 200 200 200 200 200 
200 200 200 200 200 200 200 200 200 
200 200 200 200 200 200 200 200 200 
200 200 200 200 200 200 200 200 200 
200 200 200 200 200 200 200 200 200 
200 200 200 200 200 200 200 200 200 
200 200 200 200 200 200 200 200 200 
200 200 200 200 200 200 200 200 200 
200 200 200 200 200 200 200 200 200 
200 200 200 200 200 200 200 200 200 
200 200 200 200 200 200 200 200 200 
200 200 200 200 200 200 200 200 200 
200 200 200 200 200 200 200 200 200 
200 200 200 200 200 200 200 200 200 
200 200 200 200 200 200 200 200 200 
200 200 200 200 200 200 200 200 200 
200 200 200 200 200 200 200 200 200 
200 200 200 200 200 200 200 200 200 
200 200 200 200 200 200 200 200 200 
200 200 200 200 200 200 200 200 200 
200 200 200 200 200 200 200 200 200 
200 200 200 200 200 200 200 200 200 
200 200 200 200 200 200 200 200 200 
200 200 200 200 200 200 200 200 200 
200 200 200 200 200 200 200 200 200 
200 200 200 200 200 200 200 200 200 
200 200 200 200 200 200 200 200 200 
200 200 200 200 200 200 200 200 200 
200 200 200 200 200 200 200 200 200 
200 200 200 200 200 200 200 200 200 
200 200 200 200 200 200 200 200 200 
200 200 200 200 200 200 200 200 200 
200 200 200 200 200 200 200 200 200 
200 200 200 200 200 200 200 200 200 
200 200 200 200 200 200 200 200 200 
200 200 200 200 200 200 200 200 200 
200 200 200 200 200 200 200 200 200 
200 200 200 200 200 200 200 200 200 
200 200 200 200 200 200 200 200 200 
200 200 200 200 200 200 200 200 200 
200 200 200 200 200 200 200 200 200 
200 200 200 200 200 200 200 200 200 
200 200 200 200 200 200 200 200 200 
200 200 200 200 200 200 200 200 200 
200 200 200 200 200 200 200 200 200 
200 200 200 200 200 200 200 200 200 
200 200 200 200 200 200 200 200 200 
200 200 200 200 200 200 200 200 200 
200 200 200 200 200 200 200 200 200 
200 200 200 200 200 200 200 200 200 
200 200 200 200 200 200 200 200 200 
200 200 200 200 200 200 200 200 200 
200 200 200 200 200 200 200 200 200 
200 200 200 200 200 200 200 200 200 
200 200 200 200 200 200 200 200 200 
200 200 200 200 200 200 200 200 200 
200 200 200 200 200 200 200 200 200 
200 200 200 200 200 200 200 200 200 
200 200 200 200 200 200 200 200 200 
200 200 200 200 200 200 200 200 200 
200 200 200 200 200 200 200 200 200 
200 200 200 200 200 200 200 200 200 
200 200 200 200 200 200 200 200 200 
200 200 200 200 200 200 200 200 200 
200 200 200 200 200 200 200 200 200 
200 200 200 200 200 200 200 200 200 
200 200 200 200 200 200 200 200 200 
200 200 200 200 200 200 200 200 200 
200 200 200 200 200 200 200 200 200 
200 200 200 200 200 200 200 200 200 
200 200 200 200 200 200 200 200 200 
200 200 200 200 200 200 200 200 200 
200 200 200 200 200 200 200 200 200 
200 200 200 200 200 200 200 200 200 
200 200 200 200 200 200 200 200 200 
200 200 200 200 200 200 200 200 200 
200 200 200 200 200 200 200 200 200 
200 200 200 200 200 200 200 200 200 
200 200 200 200 200 200 200 200 200 
200 200 200 200 200 200 200 200 200 
200 200 200 200 200 200 200 200 200 
200 200 200 200 200 200 200 200 200 
200 200 200 200 200 200 200 200 200 
200 200 200 200 200 200 200 200 200 
200 200 200 200 200 200 200 200 200 
200 200 200 200 200 200 200 200 200 
200 200 200 200 200 200 200 200 200 
200 200 200 200 200 200 200 200 200 
200 200 200 200 200 200 200 200 200 
200 200 200 200 200 200 200 200 200 
200 200 200 200 200 200 200 200 200 
200 200 200 200 200 200 200 200 200 
200 200 200 200 200 200 200 200 200 
200 200 200 200 200 200 200 200 200 
200 200 200 200 200 200 200 200 200 
200 200 200 200 200 200 200 200 200 
200 200 200 200 200 200 200 200 200 
200 200 200 200 200 200 200 200 200 
200 200 200 200 200 200 200 200 200 
200 200 200 200 200 200 200 200 200 
200 200 200 200 200 200 200 200 200 
200 200 200 200 200 200 200 200 200 
200 200 200 200 200 200 200 200 200 
200 200 200 200 200 200 200 200 200 
200 200 200 200 200 200 200 200 200 
200 200 200 200 200 200 200 200 200 
200 200 200 200 200 200 200 200 200 
200 200 200 200 200 200 200 200 200 
200 200 200 200 200 200 200 200 200 
200 200 200 200 200 200 200 200 200 
200 200 200 200 200 200 200 200 200 
200 200 200 200 200 200 200 200 200 
200 200 200 200 200 200 200 200 200 
200 200 200 200 200 200 200 200 200 
200 200 200 200 200 200 200 200 200 
200 200 200 200 200 200 200 200 200 
200 200 200 200 200 200 200 200 200 
200 200 200 200 200 200 200 200 200 
200 200 200 200 200 200 200 200 200 
200 200 200 200 200 200 200 200 200 
200 200 200 200 200 200 200 200 200 
200 200 200 200 200 200 200 200 200 
200 200 200 200 200 200 200 200 200 
200 200 200 200 200 200 200 200 200 
200 200 200 200 200 200 200 200 200 
200 200 200 200 200 200 200 200 200 
200 200 200 200 200 200 200 200 200 
200 200 200 200 200 
NORMALS normals float
-0.109717 -0.31633 -0.942283 -0.112236 -0.325276 -0.938935 -0.150384 -0.318121 -0.936047 
0.041647 -0.292887 -0.95524 0.0306361 -0.306361 -0.951422 0.143765 -0.246454 -0.958432 
-0.250661 -0.252491 -0.934568 -0.247551 -0.291236 -0.924067 -0.319438 -0.246233 -0.915057 
-0.0903042 -0.228705 -0.969298 0.0908787 -0.200526 -0.975464 0.185715 -0.218948 -0.9579 
0.24248 -0.143404 -0.959499 0.3048 -0.106125 -0.946485 -0.389549 -0.148243 -0.908997 
-0.387436 -0.172194 -0.905673 -0.401851 -0.147198 -0.903797 -0.227418 -0.142533 -0.96331 
-0.0492216 -0.129272 -0.990387 0.128511 -0.0824147 -0.988278 0.29203 -0.03021 -0.955932 
0.362784 -0.0082922 -0.931836 -0.379503 -0.0287217 -0.924745 -0.418157 -0.0308282 -0.907851 
-0.230228 -0.0177903 -0.972974 -0.0276588 0 -0.999617 0.189192 0.0334991 -0.981369 
0.318939 0.0713333 -0.945087 0.369622 0.0753699 -0.92612 -0.374869 0.0970266 -0.921987 
-0.407488 0.0941575 -0.908343 -0.199555 0.113391 -0.973304 0.00297094 0.15379 -0.988099 
0.198252 0.155925 -0.967669 0.331637 0.165207 -0.928829 0.355755 0.164489 -0.91999 
-0.364839 0.175663 -0.914349 -0.32573 0.217153 -0.920187 -0.174505 0.234812 -0.956249 
0.016463 0.256352 -0.966443 0.199733 0.257265 -0.945474 0.284109 0.243522 -0.927351 
0.329834 0.201939 -0.922188 -0.164034 0.306197 -0.937729 0.0274877 0.316108 -0.948325 
0.188737 0.294135 -0.936943 -0.0605927 -0.536964 -0.841426 -0.0610165 -0.544102 -0.836798 
-0.130503 -0.543368 -0.829289 0.048207 -0.545684 -0.836603 0.0488659 -0.552139 -0.832319 
0.118451 -0.550795 -0.826193 -0.268469 -0.492216 -0.828038 -0.271411 -0.511465 -0.815316 
-0.35488 -0.482203 -0.800962 -0.155659 -0.490623 -0.857356 -0.172966 -0.541409 -0.822775 
-0.0610042 -0.484049 -0.872912 0.0339356 -0.492524 -0.869637 0.141107 -0.549013 -0.823816 
0.144447 -0.484469 -0.8628 0.250396 -0.468924 -0.847002 0.247068 -0.512879 -0.822139 
0.343611 -0.462097 -0.817556 -0.363521 -0.432514 -0.825096 -0.37582 -0.471732 -0.797639 
-0.447542 -0.439498 -0.778811 -0.265218 -0.43802 -0.858952 -0.151998 -0.438912 -0.885581 
-0.0489643 -0.44214 -0.895608 0.0475376 -0.418869 -0.906802 0.157352 -0.414354 -0.89641 
0.267616 -0.387382 -0.882223 0.36641 -0.364089 -0.856261 0.463957 -0.333097 -0.820847 
-0.439935 -0.39484 -0.806572 -0.451405 -0.437504 -0.777704 -0.506809 -0.394667 -0.766409 
-0.352942 -0.395765 -0.847822 -0.25419 -0.394889 -0.882865 -0.145268 -0.40371 -0.90328 
-0.0287694 -0.383156 -0.923236 0.0740207 -0.36668 -0.927398 0.184045 -0.337108 -0.923302 
0.300471 -0.293967 -0.907359 0.39465 -0.265917 -0.879511 0.490447 -0.238803 -0.838114 
0.528894 -0.228386 -0.817381 -0.520614 -0.342983 -0.781872 -0.521124 -0.382627 -0.762907 
-0.563337 -0.336713 -0.754504 -0.433259 -0.346079 -0.832175 -0.339153 -0.354909 -0.871214 
-0.253852 -0.355625 -0.899494 -0.123459 -0.356906 -0.925946 0 -0.333022 -0.942919 
0.10571 -0.302454 -0.947284 0.229436 -0.239679 -0.943352 0.337318 -0.200584 -0.919773 
0.421998 -0.165268 -0.891406 0.504106 -0.143272 -0.851675 0.564839 -0.138259 -0.813536 
-0.620021 -0.269066 -0.737006 -0.524723 -0.276274 -0.805195 -0.435952 -0.281279 -0.854885 
-0.353345 -0.301376 -0.885618 -0.240919 -0.316223 -0.917584 0.175748 -0.229932 -0.957206 
0.283768 -0.156859 -0.945976 0.367626 -0.108048 -0.923676 0.441709 -0.0829256 -0.893318 
0.508486 -0.0742023 -0.857867 0.562685 -0.0883799 -0.821933 0.558928 -0.0712105 -0.826153 
0.5607 -0.072165 -0.824868 -0.62376 -0.193782 -0.757214 -0.655376 -0.190655 -0.730844 
-0.525056 -0.199372 -0.827386 -0.445039 -0.212845 -0.869849 -0.373268 -0.236297 -0.897126 
0.345075 -0.0762405 -0.935474 0.399625 -0.0336952 -0.916059 0.446595 -0.0209922 -0.89449 
0.511908 -0.0234426 -0.858721 0.557489 -0.0240914 -0.829835 0.562295 -0.0251025 -0.826556 
-0.62837 -0.100425 -0.771405 -0.684734 -0.0974496 -0.722248 -0.533331 -0.108771 -0.838885 
-0.468487 -0.132891 -0.873418 0.384292 0.00107194 -0.923211 0.411714 0.0239031 -0.910999 
0.452318 0.04967 -0.890472 0.501019 0.047406 -0.864137 0.554248 0.0363257 -0.831559 
0.559687 0.0354347 -0.827946 -0.631473 -0.0159373 -0.775234 -0.699661 -0.0121153 -0.714372 
-0.546136 -0.0137342 -0.837584 -0.482209 -0.0354307 -0.875339 0.389932 0.0765938 -0.917653 
0.432644 0.0885401 -0.897207 0.462642 0.101049 -0.880768 0.496884 0.102343 -0.861761 
0.543998 0.0946083 -0.833736 -0.630365 0.0814525 -0.772014 -0.694926 0.0862191 -0.713894 
-0.547711 0.0764577 -0.833167 -0.481993 0.0810343 -0.87242 0.395226 0.155313 -0.905359 
0.428687 0.151642 -0.890636 0.459781 0.149769 -0.875312 0.49599 0.152831 -0.854773 
0.532546 0.148526 -0.833268 -0.639477 0.181247 -0.747141 -0.678105 0.182955 -0.711829 
-0.54512 0.165831 -0.821793 -0.466891 0.181111 -0.86557 -0.356955 0.210876 -0.910008 
0.32256 0.232684 -0.917504 0.372799 0.215659 -0.902503 0.426395 0.199102 -0.882352 
0.45816 0.202273 -0.865549 0.494398 0.207091 -0.844206 0.516108 0.205252 -0.831567 
-0.64255 0.266697 -0.718333 -0.649141 0.267088 -0.712236 -0.54837 0.261019 -0.794456 
-0.452001 0.26814 -0.850762 -0.326237 0.286968 -0.900677 -0.160431 0.319712 -0.933834 
0.180436 0.308087 -0.934091 0.297163 0.265289 -0.917233 0.362472 0.254773 -0.896496 
0.420866 0.242883 -0.874002 0.460373 0.236839 -0.855549 0.498273 0.249136 -0.830455 
-0.643124 0.281539 -0.712129 -0.608365 0.348863 -0.712872 -0.555769 0.340795 -0.758274 
-0.450296 0.338007 -0.826429 -0.322708 0.351521 -0.878802 -0.159988 0.357338 -0.92017 
0.0111283 0.356354 -0.934285 0.161446 0.333277 -0.928903 0.275027 0.309856 -0.910137 
0.359483 0.289248 -0.887191 0.412104 0.283142 -0.866026 0.465587 0.272793 -0.84191 
0.487645 0.27938 -0.827133 -0.573829 0.395248 -0.717286 -0.570521 0.398121 -0.718335 
-0.458064 0.390092 -0.798752 -0.329892 0.397202 -0.856389 -0.170649 0.391319 -0.904294 
-0.00626883 0.390757 -0.920473 0.142748 0.371145 -0.917537 0.263689 0.35146 -0.898301 
0.346206 0.326805 -0.879397 0.405496 0.321395 -0.855733 0.458468 0.319749 -0.829197 
0.467752 0.308893 -0.828127 -0.485746 0.441131 -0.754622 -0.507133 0.442554 -0.739569 
-0.354407 0.42884 -0.830958 -0.193491 0.438625 -0.877593 -0.0175271 0.425208 -0.904926 
0.125511 0.407952 -0.904335 0.245993 0.384103 -0.889917 0.339139 0.361399 -0.868548 
0.419194 0.347807 -0.838634 0.422142 0.347821 -0.837148 -0.492568 0.447378 -0.746478 
-0.403945 0.470165 -0.784712 -0.379389 0.470091 -0.796918 -0.208622 0.478007 -0.853221 
-0.0486509 0.46528 -0.883826 0.105039 0.447179 -0.888256 0.227562 0.422846 -0.877164 
0.32435 0.408803 -0.85304 0.330223 0.407002 -0.851647 0.418467 0.350085 -0.838049 
-0.382144 0.474802 -0.792798 -0.229709 0.492597 -0.839394 -0.100742 0.499678 -0.860333 
-0.0724946 0.498912 -0.863615 0.0848994 0.484156 -0.870853 0.104656 0.482102 -0.869842 
0.220469 0.452964 -0.863838 0.323414 0.411332 -0.852179 -0.0730195 0.50063 -0.862576 
0.0840806 0.486205 -0.86979 -0.286729 -0.643546 -0.709673 -0.284743 -0.660396 -0.694837 
-0.340408 -0.639011 -0.689774 -0.176466 -0.642568 -0.745631 -0.1776 -0.684491 -0.707057 
-0.0590101 -0.646507 -0.760622 -0.0657273 -0.702128 -0.709011 0.0590101 -0.646507 -0.760622 
0.0572324 -0.697967 -0.71384 0.16136 -0.646437 -0.74571 0.158571 -0.685991 -0.710121 
0.245685 -0.641492 -0.726723 0.245889 -0.660061 -0.70983 0.288205 -0.647102 -0.705831 
-0.466818 -0.574722 -0.672142 -0.467166 -0.577263 -0.669719 -0.471552 -0.574446 -0.669067 
-0.382165 -0.570648 -0.72685 -0.386549 -0.617369 -0.685154 -0.26612 -0.576331 -0.772673 
-0.163414 -0.580764 -0.797502 -0.0630227 -0.58379 -0.809455 0.0501746 -0.58611 -0.808676 