# vtk DataFile Version 3.0
vtk output
ASCII
DATASET POLYDATA
POINTS 12711 float
22.1 552.5 0 22.1 552.5 8.84 26.52 552.132 0 
26.52 552.132 8.84 30.94 552.132 0 30.94 552.132 8.84 
35.36 552.132 0 35.36 552.132 8.84 39.78 552.132 0 
39.78 552.132 8.84 44.2 552.132 0 44.2 552.132 8.84 
48.62 552.132 0 48.62 552.132 8.84 53.04 552.132 0 
53.04 552.132 8.84 57.46 552.132 0 57.46 552.132 8.84 
61.88 552.132 0 61.88 552.132 8.84 66.3 552.132 0 
66.3 552.132 8.84 70.72 552.132 0 70.72 552.132 8.84 
75.14 552.132 0 75.14 552.132 8.84 79.56 552.132 0 
79.56 552.132 8.84 83.98 552.132 0 83.98 552.132 8.84 
88.4 552.132 0 88.4 552.132 8.84 92.82 552.132 0 
92.82 552.132 8.84 97.24 552.132 0 97.24 552.132 8.84 
101.66 552.132 0 101.66 552.132 8.84 106.08 552.132 0 
106.08 552.132 8.84 110.5 552.132 0 110.5 552.132 8.84 
114.92 552.132 0 114.92 552.132 8.84 119.34 552.132 0 
119.34 552.132 8.84 123.76 552.132 0 123.76 552.132 8.84 
128.18 552.132 0 128.18 552.132 8.84 132.6 552.132 0 
132.6 552.132 8.84 137.02 552.132 0 137.02 552.132 8.84 
141.44 552.132 0 141.44 552.132 8.84 145.86 552.132 0 
145.86 552.132 8.84 150.28 552.132 0 150.28 552.132 8.84 
154.7 552.132 0 154.7 552.132 8.84 159.12 552.132 0 
159.12 552.132 8.84 163.54 552.132 0 163.54 552.132 8.84 
167.96 552.132 0 167.96 552.132 8.84 172.38 552.132 0 
172.38 552.132 8.84 176.8 552.132 0 176.8 552.132 8.84 
181.22 552.132 0 181.22 552.132 8.84 185.64 552.132 0 
185.64 552.132 8.84 190.06 552.132 0 190.06 552.132 8.84 
194.48 552.132 0 194.48 552.132 8.84 198.9 552.132 0 
198.9 552.132 8.84 203.32 552.132 0 203.32 552.132 8.84 
207.74 552.132 0 207.74 552.132 8.84 212.16 552.132 0 
212.16 552.132 8.84 216.58 552.132 0 216.58 552.132 8.84 
221 552.132 0 221 552.132 8.84 225.42 552.132 0 
225.42 552.132 8.84 229.84 552.132 0 229.84 552.132 8.84 
234.26 552.132 0 234.26 552.132 8.84 238.68 552.132 0 
238.68 552.132 8.84 243.1 552.132 0 243.1 552.132 8.84 
247.52 552.132 0 247.52 552.132 8.84 251.94 552.132 0 
251.94 552.132 8.84 256.36 552.132 0 256.36 552.132 8.84 
260.78 552.132 0 260.78 552.132 8.84 265.2 552.132 0 
265.2 552.132 8.84 269.62 552.132 0 269.62 552.132 8.84 
274.04 552.132 0 274.04 552.132 8.84 278.46 552.132 0 
278.46 552.132 8.84 282.88 552.132 0 282.88 552.132 8.84 
287.3 552.132 0 287.3 552.132 8.84 291.72 552.132 0 
291.72 552.132 8.84 296.14 552.132 0 296.14 552.132 8.84 
300.56 552.132 0 300.56 552.132 8.84 304.98 552.132 0 
304.98 552.132 8.84 309.4 552.132 0 309.4 552.132 8.84 
313.82 552.132 0 313.82 552.132 8.84 318.24 552.132 0 
318.24 552.132 8.84 322.66 552.132 0 322.66 552.132 8.84 
327.08 552.132 0 327.08 552.132 8.84 331.5 552.132 0 
331.5 552.132 8.84 335.92 552.132 0 335.92 552.132 8.84 
340.34 552.132 0 340.34 552.132 8.84 344.76 552.132 0 
344.76 552.132 8.84 349.18 552.132 0 349.18 552.132 8.84 
353.6 552.132 0 353.6 552.132 8.84 358.02 552.132 0 
358.02 552.132 8.84 362.44 552.132 0 362.44 552.132 8.84 
366.86 552.132 0 366.86 552.132 8.84 371.28 552.132 0 
371.28 552.132 8.84 375.7 552.132 0 375.7 552.132 8.84 
380.12 552.132 0 380.12 552.132 8.84 384.54 552.132 0 
384.54 552.132 8.84 388.96 552.132 0 388.96 552.132 8.84 
393.38 552.132 0 393.38 552.132 8.84 397.8 552.132 0 
397.8 552.132 8.84 402.22 552.132 0 402.22 552.132 8.84 
406.64 552.132 0 406.64 552.132 8.84 411.06 552.132 0 
411.06 552.132 8.84 415.48 552.132 0 415.48 552.132 8.84 
419.9 552.132 0 419.9 552.132 8.84 424.32 552.132 0 
424.32 552.132 8.84 428.74 552.132 0 428.74 552.132 8.84 
433.16 552.132 0 433.16 552.132 8.84 437.58 552.132 0 
437.58 552.132 8.84 442 552.132 0 442 552.132 8.84 
446.42 552.132 0 446.42 552.132 8.84 450.84 552.132 0 
450.84 552.132 8.84 455.26 552.132 0 455.26 552.132 8.84 
459.68 552.132 0 459.68 552.132 8.84 464.1 552.132 0 
464.1 552.132 8.84 468.52 552.132 0 468.52 552.132 8.84 
472.94 552.132 0 472.94 552.132 8.84 477.36 552.132 0 
477.36 552.132 8.84 481.78 552.132 0 481.78 552.132 8.84 
486.2 552.132 0 486.2 552.132 8.84 490.62 552.132 0 
490.62 552.132 8.84 495.04 552.132 0 495.04 552.132 8.84 
499.46 552.132 0 499.46 552.132 8.84 503.88 552.132 0 
503.88 552.132 8.84 508.3 552.132 0 508.3 552.132 8.84 
512.72 552.132 0 512.72 552.132 8.84 517.14 552.132 0 
517.14 552.132 8.84 521.56 552.132 0 521.56 552.132 8.84 
525.98 552.132 0 525.98 552.132 8.84 530.4 552.132 0 
530.4 552.132 8.84 534.82 552.132 0 534.82 552.132 8.84 
539.24 552.132 0 539.24 552.132 8.84 543.66 552.5 0 
543.66 552.5 8.84 8.84 556.478 0 8.84 556.478 8.84 
8.2875 556.92 8.84 8.2875 556.92 0 13.26 554.342 0 
13.26 554.342 8.84 17.68 553.131 0 17.68 553.131 8.84 
548.08 552.776 8.84 548.08 552.776 0 552.5 553.28 0 
552.5 553.28 8.84 556.92 553.8 0 556.92 553.8 8.84 
561.34 554.32 0 561.34 554.32 8.84 4.42 560.358 0 
4.42 560.358 8.84 3.536 561.34 8.84 3.536 561.34 0 
22.1 552.5 17.68 26.52 552.132 17.68 30.94 552.132 17.68 
35.36 552.132 17.68 39.78 552.132 17.68 44.2 552.132 17.68 
48.62 552.132 17.68 53.04 552.132 17.68 57.46 552.132 17.68 
61.88 552.132 17.68 66.3 552.132 17.68 70.72 552.132 17.68 
75.14 552.132 17.68 79.56 552.132 17.68 83.98 552.132 17.68 
88.4 552.132 17.68 92.82 552.132 17.68 97.24 552.132 17.68 
101.66 552.132 17.68 106.08 552.132 17.68 110.5 552.132 17.68 
114.92 552.132 17.68 119.34 552.132 17.68 123.76 552.132 17.68 
128.18 552.132 17.68 132.6 552.132 17.68 137.02 552.132 17.68 
141.44 552.132 17.68 145.86 552.132 17.68 150.28 552.132 17.68 
154.7 552.132 17.68 159.12 552.132 17.68 163.54 552.132 17.68 
167.96 552.132 17.68 172.38 552.132 17.68 176.8 552.132 17.68 
181.22 552.132 17.68 185.64 552.132 17.68 190.06 552.132 17.68 
194.48 552.132 17.68 198.9 552.132 17.68 203.32 552.132 17.68 
207.74 552.132 17.68 212.16 552.132 17.68 216.58 552.132 17.68 
221 552.132 17.68 225.42 552.132 17.68 229.84 552.132 17.68 
234.26 552.132 17.68 238.68 552.132 17.68 243.1 552.132 17.68 
247.52 552.132 17.68 251.94 552.132 17.68 256.36 552.132 17.68 
260.78 552.132 17.68 265.2 552.132 17.68 269.62 552.132 17.68 
274.04 552.132 17.68 278.46 552.132 17.68 282.88 552.132 17.68 
287.3 552.132 17.68 291.72 552.132 17.68 296.14 552.132 17.68 
300.56 552.132 17.68 304.98 552.132 17.68 309.4 552.132 17.68 
313.82 552.132 17.68 318.24 552.132 17.68 322.66 552.132 17.68 
327.08 552.132 17.68 331.5 552.132 17.68 335.92 552.132 17.68 
340.34 552.132 17.68 344.76 552.132 17.68 349.18 552.132 17.68 
353.6 552.132 17.68 358.02 552.132 17.68 362.44 552.132 17.68 
366.86 552.132 17.68 371.28 552.132 17.68 375.7 552.132 17.68 
380.12 552.132 17.68 384.54 552.132 17.68 388.96 552.132 17.68 
393.38 552.132 17.68 397.8 552.132 17.68 402.22 552.132 17.68 
406.64 552.132 17.68 411.06 552.132 17.68 415.48 552.132 17.68 
419.9 552.132 17.68 424.32 552.132 17.68 428.74 552.132 17.68 
433.16 552.132 17.68 437.58 552.132 17.68 442 552.132 17.68 
446.42 552.132 17.68 450.84 552.132 17.68 455.26 552.132 17.68 
459.68 552.132 17.68 464.1 552.132 17.68 468.52 552.132 17.68 
472.94 552.132 17.68 477.36 552.132 17.68 481.78 552.132 17.68 
486.2 552.132 17.68 490.62 552.132 17.68 495.04 552.132 17.68 
499.46 552.132 17.68 503.88 552.132 17.68 508.3 552.132 17.68 
512.72 552.132 17.68 517.14 552.132 17.68 521.56 552.132 17.68 
525.98 552.132 17.68 530.4 552.132 17.68 534.82 552.132 17.68 
539.24 552.132 17.68 543.66 552.5 17.68 8.84 556.478 17.68 
8.2875 556.92 17.68 13.26 554.342 17.68 17.68 553.131 17.68 
548.08 552.776 17.68 552.5 553.28 17.68 556.92 553.8 17.68 
561.34 554.32 17.68 4.42 560.358 17.68 3.536 561.34 17.68 
22.1 552.5 26.52 26.52 552.132 26.52 30.94 552.132 26.52 
35.36 552.132 26.52 39.78 552.132 26.52 44.2 552.132 26.52 
48.62 552.132 26.52 53.04 552.132 26.52 57.46 552.132 26.52 
61.88 552.132 26.52 66.3 552.132 26.52 70.72 552.132 26.52 
75.14 552.132 26.52 79.56 552.132 26.52 83.98 552.132 26.52 
88.4 552.132 26.52 92.82 552.132 26.52 97.24 552.132 26.52 
101.66 552.132 26.52 106.08 552.132 26.52 110.5 552.132 26.52 
114.92 552.132 26.52 119.34 552.132 26.52 123.76 552.132 26.52 
128.18 552.132 26.52 132.6 552.132 26.52 137.02 552.132 26.52 
141.44 552.132 26.52 145.86 552.132 26.52 150.28 552.132 26.52 
154.7 552.132 26.52 159.12 552.132 26.52 163.54 552.132 26.52 
167.96 552.132 26.52 172.38 552.132 26.52 176.8 552.132 26.52 
181.22 552.132 26.52 185.64 552.132 26.52 190.06 552.132 26.52 
194.48 552.132 26.52 198.9 552.132 26.52 203.32 552.132 26.52 
207.74 552.132 26.52 212.16 552.132 26.52 216.58 552.132 26.52 
221 552.132 26.52 225.42 552.132 26.52 229.84 552.132 26.52 
234.26 552.132 26.52 238.68 552.132 26.52 243.1 552.132 26.52 
247.52 552.132 26.52 251.94 552.132 26.52 256.36 552.132 26.52 
260.78 552.132 26.52 265.2 552.132 26.52 269.62 552.132 26.52 
274.04 552.132 26.52 278.46 552.132 26.52 282.88 552.132 26.52 
287.3 552.132 26.52 291.72 552.132 26.52 296.14 552.132 26.52 
300.56 552.132 26.52 304.98 552.132 26.52 309.4 552.132 26.52 
313.82 552.132 26.52 318.24 552.132 26.52 322.66 552.132 26.52 
327.08 552.132 26.52 331.5 552.132 26.52 335.92 552.132 26.52 
340.34 552.132 26.52 344.76 552.132 26.52 349.18 552.132 26.52 
353.6 552.132 26.52 358.02 552.132 26.52 362.44 552.132 26.52 
366.86 552.132 26.52 371.28 552.132 26.52 375.7 552.132 26.52 
380.12 552.132 26.52 384.54 552.132 26.52 388.96 552.132 26.52 
393.38 552.132 26.52 397.8 552.132 26.52 402.22 552.132 26.52 
406.64 552.132 26.52 411.06 552.132 26.52 415.48 552.132 26.52 
419.9 552.132 26.52 424.32 552.132 26.52 428.74 552.132 26.52 
433.16 552.132 26.52 437.58 552.132 26.52 442 552.132 26.52 
446.42 552.132 26.52 450.84 552.132 26.52 455.26 552.132 26.52 
459.68 552.132 26.52 464.1 552.132 26.52 468.52 552.132 26.52 
472.94 552.132 26.52 477.36 552.132 26.52 481.78 552.132 26.52 
486.2 552.132 26.52 490.62 552.132 26.52 495.04 552.132 26.52 
499.46 552.132 26.52 503.88 552.132 26.52 508.3 552.132 26.52 
512.72 552.132 26.52 517.14 552.132 26.52 521.56 552.132 26.52 
525.98 552.132 26.52 530.4 552.132 26.52 534.82 552.132 26.52 
[...]
POINT_DATA 12711
SCALARS scalars float
LOOKUP_TABLE default
50 50 50 50 50 50 50 50 50 
50 50 50 50 50 50 50 50 50 
50 50 50 50 50 50 50 50 50 
50 50 50 50 50 50 50 50 50 
50 50 50 50 50 50 50 50 50 
50 50 50 50 50 50 50 50 50 
50 50 50 50 50 50 50 50 50 
50 50 50 50 50 50 50 50 50 
50 50 50 50 50 50 50 50 50 
50 50 50 50 50 50 50 50 50 
50 50 50 50 50 50 50 50 50 
50 50 50 50 50 50 50 50 50 
50 50 50 50 50 50 50 50 50 
50 50 50 50 50 50 50 50 50 
50 50 50 50 50 50 50 50 50 
50 50 50 50 50 50 50 50 50 
50 50 50 50 50 50 50 50 50 
50 50 50 50 50 50 50 50 50 
50 50 50 50 50 50 50 50 50 
50 50 50 50 50 50 50 50 50 
50 50 50 50 50 50 50 50 50 
50 50 50 50 50 50 50 50 50 
50 50 50 50 50 50 50 50 50 
50 50 50 50 50 50 50 50 50 
50 50 50 50 50 50 50 50 50 
50 50 50 50 50 50 50 50 50 
50 50 50 50 50 50 50 50 50 
50 50 50 50 50 50 50 50 50 
50 50 50 50 50 50 50 50 50 
50 50 50 50 50 50 50 50 50 
50 50 50 50 50 50 50 50 50 
50 50 50 50 50 50 50 50 50 
50 50 50 50 50 50 50 50 50 
50 50 50 50 50 50 50 50 50 
50 50 50 50 50 50 50 50 50 
50 50 50 50 50 50 50 50 50 
50 50 50 50 50 50 50 50 50 
50 50 50 50 50 50 50 50 50 
50 50 50 50 50 50 50 50 50 
50 50 50 50 50 50 50 50 50 
50 50 50 50 50 50 50 50 50 
50 50 50 50 50 50 50 50 50 
50 50 50 50 50 50 50 50 50 
50 50 50 50 50 50 50 50 50 
50 50 50 50 50 50 50 50 50 
50 50 50 50 50 50 50 50 50 
50 50 50 50 50 50 50 50 50 
50 50 50 50 50 50 50 50 50 
50 50 50 50 50 50 50 50 50 
50 50 50 50 50 50 50 50 50 
50 50 50 50 50 50 50 50 50 
50 50 50 50 50 50 50 50 50 
50 50 50 50 50 50 50 50 50 
50 50 50 50 50 50 50 50 50 
50 50 50 50 50 50 50 50 50 
50 50 50 50 50 50 50 50 50 
50 50 50 50 50 50 50 50 50 
50 50 50 50 50 50 50 50 50 
50 50 50 50 50 50 50 50 50 
50 50 50 50 50 50 50 50 50 
50 50 50 50 50 50 50 50 50 
50 50 50 50 50 50 50 50 50 
50 50 50 50 50 50 50 50 50 
50 50 50 50 50 50 50 50 50 
50 50 50 50 50 50 50 50 50 
50 50 50 50 50 50 50 50 50 
50 50 50 50 50 50 50 50 50 
50 50 50 50 50 50 50 50 50 
50 50 50 50 50 50 50 50 50 
50 50 50 50 50 50 50 50 50 
50 50 50 50 50 50 50 50 50 
50 50 50 50 50 50 50 50 50 
50 50 50 50 50 50 50 50 50 
50 50 50 50 50 50 50 50 50 
50 50 50 50 50 50 50 50 50 
50 50 50 50 50 50 50 50 50 
50 50 50 50 50 50 50 50 50 
50 50 50 50 50 50 50 50 50 
50 50 50 50 50 50 50 50 50 
50 50 50 50 50 50 50 50 50 
50 50 50 50 50 50 50 50 50 
50 50 50 50 50 50 50 50 50 
50 50 50 50 50 50 50 50 50 
50 50 50 50 50 50 50 50 50 
50 50 50 50 50 50 50 50 50 
50 50 50 50 50 50 50 50 50 
50 50 50 50 50 50 50 50 50 
50 50 50 50 50 50 50 50 50 
50 50 50 50 50 50 50 50 50 
50 50 50 50 50 50 50 50 50 
50 50 50 50 50 50 50 50 50 
50 50 50 50 50 50 50 50 50 
50 50 50 50 50 50 50 50 50 
50 50 50 50 50 50 50 50 50 
50 50 50 50 50 50 50 50 50 
50 50 50 50 50 50 50 50 50 
50 50 50 50 50 50 50 50 50 
50 50 50 50 50 50 50 50 50 
50 50 50 50 50 50 50 50 50 
50 50 50 50 50 50 50 50 50 
50 50 50 50 50 50 50 50 50 
50 50 50 50 50 50 50 50 50 
50 50 50 50 50 50 50 50 50 
50 50 50 50 50 50 50 50 50 
50 50 50 50 50 50 50 50 50 
50 50 50 50 50 50 50 50 50 
50 50 50 50 50 50 50 50 50 
50 50 50 50 50 50 50 50 50 
50 50 50 50 50 50 50 50 50 
50 50 50 50 50 50 50 50 50 
50 50 50 50 50 50 50 50 50 
50 50 50 50 50 50 50 50 50 
50 50 50 50 50 50 50 50 50 
50 50 50 50 50 50 50 50 50 
50 50 50 50 50 50 50 50 50 
50 50 50 50 50 50 50 50 50 
50 50 50 50 50 50 50 50 50 
50 50 50 50 50 50 50 50 50 
50 50 50 50 50 50 50 50 50 
50 50 50 50 50 50 50 50 50 
50 50 50 50 50 50 50 50 50 
50 50 50 50 50 50 50 50 50 
50 50 50 50 50 50 50 50 50 
50 50 50 50 50 50 50 50 50 
50 50 50 50 50 50 50 50 50 
50 50 50 50 50 50 50 50 50 
50 50 50 50 50 50 50 50 50 
50 50 50 50 50 50 50 50 50 
50 50 50 50 50 50 50 50 50 
50 50 50 50 50 50 50 50 50 
50 50 50 50 50 50 50 50 50 
50 50 50 50 50 50 50 50 50 
50 50 50 50 50 50 50 50 50 
50 50 50 50 50 50 50 50 50 
50 50 50 50 50 50 50 50 50 
50 50 50 50 50 50 50 50 50 
50 50 50 50 50 50 50 50 50 
50 50 50 50 50 50 50 50 50 
50 50 50 50 50 50 50 50 50 
50 50 50 50 50 50 50 50 50 
50 50 50 50 50 50 50 50 50 
50 50 50 50 50 50 50 50 50 
50 50 50 50 50 50 50 50 50 
50 50 50 50 50 50 50 50 50 
50 50 50 50 50 50 50 50 50 
50 50 50 50 50 50 50 50 50 
50 50 50 50 50 50 50 50 50 
50 50 50 50 50 50 50 50 50 
50 50 50 50 50 50 50 50 50 
50 50 50 50 50 50 50 50 50 
50 50 50 50 50 50 50 50 50 
50 50 50 50 50 50 50 50 50 
50 50 50 50 50 50 50 50 50 
50 50 50 50 50 50 50 50 50 
50 50 50 50 50 50 50 50 50 
50 50 50 50 50 50 50 50 50 
50 50 50 50 50 50 50 50 50 
50 50 50 50 50 50 50 50 50 
50 50 50 50 50 50 50 50 50 
50 50 50 50 50 50 50 50 50 
50 50 50 50 50 50 50 50 50 
50 50 50 50 50 50 50 50 50 
50 50 50 50 50 50 50 50 50 
50 50 50 50 50 50 50 50 50 
50 50 50 50 50 50 50 50 50 
50 50 50 50 50 50 50 50 50 
50 50 50 50 50 50 50 50 50 
50 50 50 50 50 50 50 50 50 
50 50 50 50 50 50 50 50 50 
50 50 50 50 50 50 50 50 50 
50 50 50 50 50 50 50 50 50 
50 50 50 50 50 50 50 50 50 
50 50 50 50 50 50 50 50 50 
50 50 50 50 50 50 50 50 50 
50 50 50 50 50 50 50 50 50 
50 50 50 50 50 50 50 50 50 
50 50 50 50 50 50 50 50 50 
50 50 50 50 50 50 50 50 50 
50 50 50 50 50 50 50 50 50 
50 50 50 50 50 50 50 50 50 
50 50 50 50 50 50 50 50 50 
50 50 50 50 50 50 50 50 50 
50 50 50 50 50 50 50 50 50 
50 50 50 50 50 50 50 50 50 
50 50 50 50 50 50 50 50 50 
50 50 50 50 50 50 50 50 50 
50 50 50 50 50 50 50 50 50 
50 50 50 50 50 50 50 50 50 
50 50 50 50 50 50 50 50 50 
50 50 50 50 50 50 50 50 50 
50 50 50 50 50 50 50 50 50 
50 50 50 50 50 50 50 50 50 
50 50 50 50 50 50 50 50 50 
50 50 50 50 50 50 50 50 50 
50 50 50 50 50 50 50 50 50 
50 50 50 50 50 50 50 50 50 
50 50 50 50 50 50 50 50 50 
50 50 50 50 50 50 50 50 50 
50 50 50 50 50 50 50 50 50 
50 50 50 50 50 50 50 50 50 
50 50 50 50 50 50 50 50 50 
50 50 50 50 50 50 50 50 50 
50 50 50 50 50 50 50 50 50 
50 50 50 50 50 50 50 50 50 
50 50 50 50 50 50 50 50 50 
50 50 50 50 50 50 50 50 50 
50 50 50 50 50 50 50 50 50 
50 50 50 50 50 50 50 50 50 
50 50 50 50 50 50 50 50 50 
50 50 50 50 50 50 50 50 50 
50 50 50 50 50 50 50 50 50 
50 50 50 50 50 50 50 50 50 
50 50 50 50 50 50 50 50 50 
50 50 50 50 50 50 50 50 50 
50 50 50 50 50 50 50 50 50 
50 50 50 50 50 50 50 50 50 
50 50 50 50 50 50 50 50 50 
50 50 50 50 50 50 50 50 50 
50 50 50 50 50 50 50 50 50 
50 50 50 50 50 50 50 50 50 
50 50 50 50 50 50 50 50 50 
50 50 50 50 50 50 50 50 50 
50 50 50 50 50 50 50 50 50 
50 50 50 50 50 50 50 50 50 
50 50 50 50 50 50 50 50 50 
50 50 50 50 50 50 50 50 50 
50 50 50 50 50 50 50 50 50 
50 50 50 50 50 50 50 50 50 
50 50 50 50 50 50 50 50 50 
50 50 50 50 50 50 50 50 50 
50 50 50 50 50 50 50 50 50 
50 50 50 50 50 50 50 50 50 
50 50 50 50 50 50 50 50 50 
50 50 50 50 50 50 50 50 50 
50 50 50 50 50 50 50 50 50 
50 50 50 50 50 50 50 50 50 
50 50 50 50 50 50 50 50 50 
50 50 50 50 50 50 50 50 50 
50 50 50 50 50 50 50 50 50 
50 50 50 50 50 50 50 50 50 
50 50 50 50 50 50 50 50 50 
50 50 50 50 50 50 50 50 50 
50 50 50 50 50 50 50 50 50 
50 50 50 50 50 50 50 50 50 
50 50 50 50 50 50 50 50 50 
50 50 50 50 50 50 50 50 50 
50 50 50 50 50 50 50 50 50 
50 50 50 50 50 50 50 50 50 
50 50 50 50 50 50 50 50 50 
50 50 50 50 50 50 50 50 50 
50 50 50 50 50 50 50 50 50 
50 50 50 50 50 50 50 50 50 
50 50 50 50 50 50 50 50 50 
50 50 50 50 50 50 50 50 50 
50 50 50 50 50 50 50 50 50 
50 50 50 50 50 50 50 50 50 
50 50 50 50 50 50 50 50 50 
50 50 50 50 50 50 50 50 50 
50 50 50 50 50 50 50 50 50 
50 50 50 50 50 50 50 50 50 
50 50 50 50 50 50 50 50 50 
50 50 50 50 50 50 50 50 50 
50 50 50 50 50 50 50 50 50 
50 50 50 50 50 50 50 50 50 
50 50 50 50 50 50 50 50 50 
50 50 50 50 50 50 50 50 50 
50 50 50 50 50 50 50 50 50 
50 50 50 50 50 50 50 50 50 
50 50 50 50 50 50 50 50 50 
50 50 50 50 50 50 50 50 50 
50 50 50 50 50 50 50 50 50 
50 50 50 50 50 50 50 50 50 
50 50 50 50 50 50 50 50 50 
50 50 50 50 50 50 50 50 50 
50 50 50 50 50 50 50 50 50 
50 50 50 50 50 50 50 50 50 
50 50 50 50 50 50 50 50 50 
50 50 50 50 50 50 50 50 50 
50 50 50 50 50 50 50 50 50 
50 50 50 50 50 50 50 50 50 
50 50 50 50 50 50 50 50 50 
50 50 50 50 50 50 50 50 50 
50 50 50 50 50 50 50 50 50 
50 50 50 50 50 50 50 50 50 
50 50 50 50 50 50 50 50 50 
50 50 50 50 50 50 50 50 50 
50 50 50 50 50 50 50 50 50 
50 50 50 50 50 50 50 50 50 
50 50 50 50 50 50 50 50 50 
50 50 50 50 50 50 50 50 50 
50 50 50 50 50 50 50 50 50 
50 50 50 50 50 50 50 50 50 
50 50 50 50 50 50 50 50 50 
50 50 50 50 50 50 50 50 50 
50 50 50 50 50 50 50 50 50 
50 50 50 50 50 50 50 50 50 
50 50 50 50 50 50 50 50 50 
50 50 50 50 50 50 50 50 50 
50 50 50 50 50 50 50 50 50 
50 50 50 50 50 50 50 50 50 
50 50 50 50 50 50 50 50 50 
50 50 50 50 50 50 50 50 50 
50 50 50 50 50 50 50 50 50 
50 50 50 50 50 50 50 50 50 
50 50 50 50 50 50 50 50 50 
50 50 50 50 50 50 50 50 50 
50 50 50 50 50 50 50 50 50 
50 50 50 50 50 50 50 50 50 
50 50 50 50 50 50 50 50 50 
50 50 50 50 50 50 50 50 50 
50 50 50 50 50 50 50 50 50 
50 50 50 50 50 50 50 50 50 
50 50 50 50 50 50 50 50 50 
50 50 50 50 50 50 50 50 50 
50 50 50 50 50 50 50 50 50 
50 50 50 50 50 50 50 50 50 
50 50 50 50 50 50 50 50 50 
50 50 50 50 50 50 50 50 50 
50 50 50 50 50 50 50 50 50 
50 50 50 50 50 50 50 50 50 
50 50 50 50 50 50 50 50 50 
50 50 50 50 50 50 50 50 50 
50 50 50 50 50 50 50 50 50 
50 50 50 50 50 50 50 50 50 
50 50 50 50 50 50 50 50 50 
50 50 50 50 50 50 50 50 50 
50 50 50 50 50 50 50 50 50 
50 50 50 50 50 50 50 50 50 
50 50 50 50 50 50 50 50 50 
50 50 50 50 50 50 50 50 50 
50 50 50 50 50 50 50 50 50 
50 50 50 50 50 50 50 50 50 
50 50 50 50 50 50 50 50 50 
50 50 50 50 50 50 50 50 50 
50 50 50 50 50 50 50 50 50 
50 50 50 50 50 50 50 50 50 
50 50 50 50 50 50 50 50 50 
50 50 50 50 50 50 50 50 50 
50 50 50 50 50 50 50 50 50 
50 50 50 50 50 50 50 50 50 
50 50 50 50 50 50 50 50 50 
50 50 50 50 50 50 50 50 50 
50 50 50 50 50 50 50 50 50 
50 50 50 50 50 50 50 50 50 
50 50 50 50 50 50 50 50 50 
50 50 50 50 50 50 50 50 50 
50 50 50 50 50 50 50 50 50 
50 50 50 50 50 50 50 50 50 
50 50 50 50 50 50 50 50 50 
50 50 50 50 50 50 50 50 50 
50 50 50 50 50 50 50 50 50 
50 50 50 50 50 50 50 50 50 
50 50 50 50 50 50 50 50 50 
50 50 50 50 50 50 50 50 50 
50 50 50 50 50 50 50 50 50 
50 50 50 50 50 50 50 50 50 
50 50 50 50 50 50 50 50 50 
50 50 50 50 50 50 50 50 50 
50 50 50 50 50 50 50 50 50 
50 50 50 50 50 50 50 50 50 
50 50 50 50 50 50 50 50 50 
50 50 50 50 50 50 50 50 50 
50 50 50 50 50 50 50 50 50 
50 50 50 50 50 50 50 50 50 
50 50 50 50 50 50 50 50 50 
50 50 50 50 50 50 50 50 50 
50 50 50 50 50 50 50 50 50 
50 50 50 50 50 50 50 50 50 
50 50 50 50 50 50 50 50 50 
50 50 50 50 50 50 50 50 50 
50 50 50 50 50 50 50 50 50 
50 50 50 50 50 50 50 50 50 
50 50 50 50 50 50 50 50 50 
50 50 50 50 50 50 50 50 50 
50 50 50 50 50 50 50 50 50 
50 50 50 50 50 50 50 50 50 
50 50 50 50 50 50 50 50 50 
50 50 50 50 50 50 50 50 50 
50 50 50 50 50 50 50 50 50 
50 50 50 50 50 50 50 50 50 
50 50 50 50 50 50 50 50 50 
50 50 50 50 50 50 50 50 50 
50 50 50 50 50 50 50 50 50 
50 50 50 50 50 50 50 50 50 
50 50 50 50 50 50 50 50 50 
50 50 50 50 50 50 50 50 50 
50 50 50 50 50 50 50 50 50 
50 50 50 50 50 50 50 50 50 
50 50 50 50 50 50 50 50 50 
50 50 50 50 50 50 50 50 50 
50 50 50 50 50 50 50 50 50 
50 50 50 50 50 50 50 50 50 
50 50 50 50 50 50 50 50 50 
50 50 50 50 50 50 50 50 50 
50 50 50 50 50 50 50 50 50 
50 50 50 50 50 50 50 50 50 
50 50 50 50 50 50 50 50 50 
50 50 50 50 50 50 50 50 50 
50 50 50 50 50 50 50 50 50 
50 50 50 50 50 50 50 50 50 
50 50 50 50 50 50 50 50 50 
50 50 50 50 50 50 50 50 50 
50 50 50 50 50 50 50 50 50 
50 50 50 50 50 50 50 50 50 
50 50 50 50 50 50 50 50 50 
50 50 50 50 50 50 50 50 50 
50 50 50 50 50 50 50 50 50 
50 50 50 50 50 50 50 50 50 
50 50 50 50 50 50 50 50 50 
50 50 50 50 50 50 50 50 50 
50 50 50 50 50 50 50 50 50 
50 50 50 50 50 50 50 50 50 
50 50 50 50 50 50 50 50 50 
50 50 50 50 50 50 50 50 50 
50 50 50 50 50 50 50 50 50 
50 50 50 50 50 50 50 50 50 
50 50 50 50 50 50 50 50 50 
50 50 50 50 50 50 50 50 50 
50 50 50 50 50 50 50 50 50 
50 50 50 50 50 50 50 50 50 
50 50 50 50 50 50 50 50 50 
50 50 50 50 50 50 50 50 50 
50 50 50 50 50 50 50 50 50 
50 50 50 50 50 50 50 50 50 
50 50 50 50 50 50 50 50 50 
50 50 50 50 50 50 50 50 50 
50 50 50 50 50 50 50 50 50 
50 50 50 50 50 50 50 50 50 
50 50 50 50 50 50 50 50 50 
50 50 50 50 50 50 50 50 50 
50 50 50 50 50 50 50 50 50 
50 50 50 50 50 50 50 50 50 
50 50 50 50 50 50 50 50 50 
50 50 50 50 50 50 50 50 50 
50 50 50 50 50 50 50 50 50 
50 50 50 50 50 50 50 50 50 
50 50 50 50 50 50 50 50 50 
50 50 50 50 50 50 50 50 50 
50 50 50 50 50 50 50 50 50 
50 50 50 50 50 50 50 50 50 
50 50 50 50 50 50 50 50 50 
50 50 50 50 50 50 50 50 50 
50 50 50 50 50 50 50 50 50 
50 50 50 50 50 50 50 50 50 
50 50 50 50 50 50 50 50 50 
50 50 50 50 50 50 50 50 50 
50 50 50 50 50 50 50 50 50 
50 50 50 50 50 50 50 50 50 
50 50 50 50 50 50 50 50 50 
50 50 50 50 50 50 50 50 50 
50 50 50 50 50 50 50 50 50 
50 50 50 50 50 50 50 50 50 
50 50 50 50 50 50 50 50 50 
50 50 50 50 50 50 50 50 50 
50 50 50 50 50 50 50 50 50 
50 50 50 50 50 50 50 50 50 
50 50 50 50 50 50 50 50 50 
50 50 50 50 50 50 50 50 50 
50 50 50 50 50 50 50 50 50 
50 50 50 50 50 50 50 50 50 
50 50 50 50 50 50 50 50 50 
50 50 50 50 50 50 50 50 50 
50 50 50 50 50 50 50 50 50 
50 50 50 50 50 50 50 50 50 
50 50 50 50 50 50 50 50 50 
50 50 50 50 50 50 50 50 50 
50 50 50 50 50 50 50 50 50 
50 50 50 50 50 50 50 50 50 
50 50 50 50 50 50 50 50 50 
50 50 50 50 50 50 50 50 50 
50 50 50 50 50 50 50 50 50 
50 50 50 50 50 50 50 50 50 
50 50 50 50 50 50 50 50 50 
50 50 50 50 50 50 50 50 50 
50 50 50 50 50 50 50 50 50 
50 50 50 50 50 50 50 50 50 
50 50 50 50 50 50 50 50 50 
50 50 50 50 50 50 50 50 50 
50 50 50 50 50 50 50 50 50 
50 50 50 50 50 50 50 50 50 
50 50 50 50 50 50 50 50 50 
50 50 50 50 50 50 50 50 50 
50 50 50 50 50 50 50 50 50 
50 50 50 50 50 50 50 50 50 
50 50 50 50 50 50 50 50 50 
50 50 50 50 50 50 50 50 50 
50 50 50 50 50 50 50 50 50 
50 50 50 50 50 50 50 50 50 
50 50 50 50 50 50 50 50 50 
50 50 50 50 50 50 50 50 50 
50 50 50 50 50 50 50 50 50 
50 50 50 50 50 50 50 50 50 
50 50 50 50 50 50 50 50 50 
50 50 50 50 50 50 50 50 50 
50 50 50 50 50 50 50 50 50 
50 50 50 50 50 50 50 50 50 
50 50 50 50 50 50 50 50 50 
50 50 50 50 50 50 50 50 50 
50 50 50 50 50 50 50 50 50 
50 50 50 50 50 50 50 50 50 
50 50 50 50 50 50 50 50 50 
50 50 50 50 50 50 50 50 50 
50 50 50 50 50 50 50 50 50 
50 50 50 50 50 50 50 50 50 
50 50 50 50 50 50 50 50 50 
50 50 50 50 50 50 50 50 50 
50 50 50 50 50 50 50 50 50 
50 50 50 50 50 50 50 50 50 
50 50 50 50 50 50 50 50 50 
50 50 50 50 50 50 50 50 50 
50 50 50 50 50 50 50 50 50 
50 50 50 50 50 50 50 50 50 
50 50 50 50 50 50 50 50 50 
50 50 50 50 50 50 50 50 50 
50 50 50 50 50 50 50 50 50 
50 50 50 50 50 50 50 50 50 
50 50 50 50 50 50 50 50 50 
50 50 50 50 50 50 50 50 50 
50 50 50 50 50 50 50 50 50 
50 50 50 50 50 50 50 50 50 
50 50 50 50 50 50 50 50 50 
50 50 50 50 50 50 50 50 50 
50 50 50 50 50 50 50 50 50 
50 50 50 50 50 50 50 50 50 
50 50 50 50 50 50 50 50 50 
50 50 50 50 50 50 50 50 50 
50 50 50 50 50 50 50 50 50 
50 50 50 50 50 50 50 50 50 
50 50 50 50 50 50 50 50 50 
50 50 50 50 50 50 50 50 50 
50 50 50 50 50 50 50 50 50 
50 50 50 50 50 50 50 50 50 
50 50 50 50 50 50 50 50 50 
50 50 50 50 50 50 50 50 50 
50 50 50 50 50 50 50 50 50 
50 50 50 50 50 50 50 50 50 
50 50 50 50 50 50 50 50 50 
50 50 50 50 50 50 50 50 50 
50 50 50 50 50 50 50 50 50 
50 50 50 50 50 50 50 50 50 
50 50 50 50 50 50 50 50 50 
50 50 50 50 50 50 50 50 50 
50 50 50 50 50 50 50 50 50 
50 50 50 50 50 50 50 50 50 
50 50 50 50 50 50 50 50 50 
50 50 50 50 50 50 50 50 50 
50 50 50 50 50 50 50 50 50 
50 50 50 50 50 50 50 50 50 
50 50 50 50 50 50 50 50 50 
50 50 50 50 50 50 50 50 50 
50 50 50 50 50 50 50 50 50 
50 50 50 50 50 50 50 50 50 
50 50 50 50 50 50 50 50 50 
50 50 50 50 50 50 50 50 50 
50 50 50 50 50 50 50 50 50 
50 50 50 50 50 50 50 50 50 
50 50 50 50 50 50 50 50 50 
50 50 50 50 50 50 50 50 50 
50 50 50 50 50 50 50 50 50 
50 50 50 50 50 50 50 50 50 
50 50 50 50 50 50 50 50 50 
50 50 50 50 50 50 50 50 50 
50 50 50 50 50 50 50 50 50 
50 50 50 50 50 50 50 50 50 
50 50 50 50 50 50 50 50 50 
50 50 50 50 50 50 50 50 50 
50 50 50 50 50 50 50 50 50 
50 50 50 50 50 50 50 50 50 
50 50 50 50 50 50 50 50 50 
50 50 50 50 50 50 50 50 50 
50 50 50 50 50 50 50 50 50 
50 50 50 50 50 50 50 50 50 
50 50 50 50 50 50 50 50 50 
50 50 50 50 50 50 50 50 50 
50 50 50 50 50 50 50 50 50 
50 50 50 50 50 50 50 50 50 
50 50 50 50 50 50 50 50 50 
50 50 50 50 50 50 50 50 50 
50 50 50 50 50 50 50 50 50 
50 50 50 50 50 50 50 50 50 
50 50 50 50 50 50 50 50 50 
50 50 50 50 50 50 50 50 50 
50 50 50 50 50 50 50 50 50 
50 50 50 50 50 50 50 50 50 
50 50 50 50 50 50 50 50 50 
50 50 50 50 50 50 50 50 50 
50 50 50 50 50 50 50 50 50 
50 50 50 50 50 50 50 50 50 
50 50 50 50 50 50 50 50 50 
50 50 50 50 50 50 50 50 50 
50 50 50 50 50 50 50 50 50 
50 50 50 50 50 50 50 50 50 
50 50 50 50 50 50 50 50 50 
50 50 50 50 50 50 50 50 50 
50 50 50 50 50 50 50 50 50 
50 50 50 50 50 50 50 50 50 
50 50 50 50 50 50 50 50 50 
50 50 50 50 50 50 50 50 50 
50 50 50 50 50 50 50 50 50 
50 50 50 50 50 50 50 50 50 
50 50 50 50 50 50 50 50 50 
50 50 50 50 50 50 50 50 50 
50 50 50 50 50 50 50 50 50 
50 50 50 50 50 50 50 50 50 
50 50 50 50 50 50 50 50 50 
50 50 50 50 50 50 50 50 50 
50 50 50 50 50 50 50 50 50 
50 50 50 50 50 50 50 50 50 
50 50 50 50 50 50 50 50 50 
50 50 50 50 50 50 50 50 50 
50 50 50 50 50 50 50 50 50 
50 50 50 50 50 50 50 50 50 
50 50 50 50 50 50 50 50 50 
50 50 50 50 50 50 50 50 50 
50 50 50 50 50 50 50 50 50 
50 50 50 50 50 50 50 50 50 
50 50 50 50 50 50 50 50 50 
50 50 50 50 50 50 50 50 50 
50 50 50 50 50 50 50 50 50 
50 50 50 50 50 50 50 50 50 
50 50 50 50 50 50 50 50 50 
50 50 50 50 50 50 50 50 50 
50 50 50 50 50 50 50 50 50 
50 50 50 50 50 50 50 50 50 
50 50 50 50 50 50 50 50 50 
50 50 50 50 50 50 50 50 50 
50 50 50 50 50 50 50 50 50 
50 50 50 50 50 50 50 50 50 
50 50 50 50 50 50 50 50 50 
50 50 50 50 50 50 50 50 50 
50 50 50 50 50 50 50 50 50 
50 50 50 50 50 50 50 50 50 
50 50 50 50 50 50 50 50 50 
50 50 50 50 50 50 50 50 50 
50 50 50 50 50 50 50 50 50 
50 50 50 50 50 50 50 50 50 
50 50 50 50 50 50 50 50 50 
50 50 50 50 50 50 50 50 50 
50 50 50 50 50 50 50 50 50 
50 50 50 50 50 50 50 50 50 
50 50 50 50 50 50 50 50 50 
50 50 50 50 50 50 50 50 50 
50 50 50 50 50 50 50 50 50 
50 50 50 50 50 50 50 50 50 
50 50 50 50 50 50 50 50 50 
50 50 50 50 50 50 50 50 50 
50 50 50 50 50 50 50 50 50 
50 50 50 50 50 50 50 50 50 
50 50 50 50 50 50 50 50 50 
50 50 50 50 50 50 50 50 50 
50 50 50 50 50 50 50 50 50 
50 50 50 50 50 50 50 50 50 
50 50 50 50 50 50 50 50 50 
50 50 50 50 50 50 50 50 50 
50 50 50 50 50 50 50 50 50 
50 50 50 50 50 50 50 50 50 
50 50 50 50 50 50 50 50 50 
50 50 50 50 50 50 50 50 50 
50 50 50 50 50 50 50 50 50 
50 50 50 50 50 50 50 50 50 
50 50 50 50 50 50 50 50 50 
50 50 50 50 50 50 50 50 50 
50 50 50 50 50 50 50 50 50 
50 50 50 50 50 50 50 50 50 
50 50 50 50 50 50 50 50 50 
50 50 50 50 50 50 50 50 50 
50 50 50 50 50 50 50 50 50 
50 50 50 50 50 50 50 50 50 
50 50 50 50 50 50 50 50 50 
50 50 50 50 50 50 50 50 50 
50 50 50 50 50 50 50 50 50 
50 50 50 50 50 50 50 50 50 
50 50 50 50 50 50 50 50 50 
50 50 50 50 50 50 50 50 50 
50 50 50 50 50 50 50 50 50 
50 50 50 50 50 50 50 50 50 
50 50 50 50 50 50 50 50 50 
50 50 50 50 50 50 50 50 50 
50 50 50 50 50 50 50 50 50 
50 50 50 50 50 50 50 50 50 
50 50 50 50 50 50 50 50 50 
50 50 50 50 50 50 50 50 50 
50 50 50 50 50 50 50 50 50 
50 50 50 50 50 50 50 50 50 
50 50 50 50 50 50 50 50 50 
50 50 50 50 50 50 50 50 50 
50 50 50 50 50 50 50 50 50 
50 50 50 50 50 50 50 50 50 
50 50 50 50 50 50 50 50 50 
50 50 50 50 50 50 50 50 50 
50 50 50 50 50 50 50 50 50 
50 50 50 50 50 50 50 50 50 
50 50 50 50 50 50 50 50 50 
50 50 50 50 50 50 50 50 50 
50 50 50 50 50 50 50 50 50 
50 50 50 50 50 50 50 50 50 
50 50 50 50 50 50 50 50 50 
50 50 50 50 50 50 50 50 50 
50 50 50 50 50 50 50 50 50 
50 50 50 50 50 50 50 50 50 
50 50 50 50 50 50 50 50 50 
50 50 50 50 50 50 50 50 50 
50 50 50 50 50 50 50 50 50 
50 50 50 50 50 50 50 50 50 
50 50 50 50 50 50 50 50 50 
50 50 50 50 50 50 50 50 50 
50 50 50 50 50 50 50 50 50 
50 50 50 50 50 50 50 50 50 
50 50 50 50 50 50 50 50 50 
50 50 50 50 50 50 50 50 50 
50 50 50 50 50 50 50 50 50 
50 50 50 50 50 50 50 50 50 