# vtk DataFile Version 3.0
vtk output
ASCII
DATASET POLYDATA
POINTS 3568 float
172.38 229.84 220.558 172.38 228.956 221 171.275 229.84 221 
176.8 229.84 219.619 176.8 226.683 221 181.22 229.84 219.481 
181.22 226.1 221 185.64 229.84 220.002 185.64 227.262 221 
188.734 229.84 221 167.96 234.26 220.551 167.96 233.155 221 
167.18 234.26 221 172.38 234.26 219.05 176.8 234.26 218.299 
181.22 234.26 218.299 185.64 234.26 219.021 190.06 232.05 221 
190.06 234.26 220.543 190.944 234.26 221 167.96 238.68 219.368 
165.013 238.68 221 172.38 238.68 218.094 176.8 238.68 217.627 
181.22 238.68 217.7 185.64 238.68 218.566 190.06 238.68 220.251 
191.36 238.68 221 167.96 243.1 218.889 164.031 243.1 221 
172.38 243.1 217.743 176.8 243.1 217.373 181.22 243.1 217.627 
185.64 243.1 218.66 190.06 243.1 220.543 190.84 243.1 221 
167.96 247.52 218.991 164.06 247.52 221 172.38 247.52 217.894 
176.8 247.52 217.627 181.22 247.52 217.973 185.64 247.52 219.096 
189.765 247.52 221 190.06 246.415 221 167.96 251.94 219.696 
165.474 251.94 221 172.38 251.94 218.66 176.8 251.94 218.299 
181.22 251.94 218.889 185.64 251.94 220.116 187.408 251.94 221 
167.96 255.556 221 168.942 256.36 221 172.38 256.36 219.986 
176.8 256.36 219.717 181.22 256.36 220.401 182.988 256.36 221 
185.64 254.15 221 172.38 258.57 221 176.8 259.201 221 
181.22 257.72 221 176.8 207.74 229.708 176.8 207.57 229.84 
176.358 207.74 229.84 181.22 207.74 229.071 181.22 206.793 229.84 
185.64 207.74 229.06 185.64 206.758 229.84 190.06 207.74 229.568 
190.06 207.413 229.84 191.165 207.74 229.84 167.96 212.16 229.572 
167.96 211.806 229.84 167.469 212.16 229.84 172.38 212.16 227.809 
172.38 209.27 229.84 176.8 212.16 226.819 181.22 212.16 226.348 
185.64 212.16 226.239 190.06 212.16 226.667 194.48 208.801 229.84 
194.48 212.16 227.539 198.9 212.16 229.16 198.9 211.199 229.84 
200.128 212.16 229.84 163.54 216.58 228.93 163.54 215.235 229.84 
162.134 216.58 229.84 167.96 216.58 226.893 172.38 216.58 225.525 
176.8 216.58 224.717 181.22 216.58 224.34 185.64 216.58 224.315 
190.06 216.58 224.658 194.48 216.58 225.473 198.9 216.58 226.893 
203.32 215.352 229.84 203.32 216.58 229.149 204.281 216.58 229.84 
159.12 221 229.17 159.12 219.895 229.84 158.236 221 229.84 
163.54 221 226.553 167.96 221 224.848 172.38 221 223.72 
176.8 221 222.922 181.22 221 222.693 185.64 221 222.73 
190.06 221 223.21 194.48 221 224.114 198.9 221 225.475 
203.32 221 227.507 206.55 221 229.84 159.12 225.42 226.893 
155.027 225.42 229.84 163.54 225.42 224.744 167.96 225.42 223.259 
172.38 225.42 222.141 176.8 225.42 221.38 181.22 225.42 221.19 
185.64 225.42 221.47 190.06 225.42 222.129 194.48 225.42 223.137 
198.9 225.42 224.598 203.32 225.42 226.583 207.74 224.868 229.84 
207.74 225.42 229.695 207.898 225.42 229.84 154.7 229.84 228.15 
154.7 226.009 229.84 152.719 229.84 229.84 159.12 229.84 225.42 
163.54 229.84 223.411 167.96 229.84 221.865 190.06 229.84 221.285 
194.48 229.84 222.537 198.9 229.84 224.114 203.32 229.84 226.147 
207.74 229.84 229.149 208.529 229.84 229.84 154.7 234.26 226.813 
151.135 234.26 229.84 159.12 234.26 224.262 163.54 234.26 222.375 
194.48 234.26 222.166 198.9 234.26 223.913 203.32 234.26 225.973 
207.74 234.26 228.902 208.886 234.26 229.84 150.28 238.68 229.55 
150.28 237.575 229.84 149.995 238.68 229.84 154.7 238.68 226.002 
159.12 238.68 223.57 163.54 238.68 221.589 194.48 238.68 222.166 
198.9 238.68 223.913 203.32 238.68 226.083 207.74 238.68 228.916 
208.886 238.68 229.84 150.28 243.1 229.127 149.589 243.1 229.84 
154.7 243.1 225.707 159.12 243.1 223.184 163.54 243.1 221.196 
194.48 243.1 222.36 198.9 243.1 224.251 203.32 243.1 226.44 
207.74 243.1 229.432 208.25 243.1 229.84 150.28 247.52 229.391 
149.852 247.52 229.84 154.7 247.52 225.715 159.12 247.52 223.288 
163.54 247.52 221.199 190.06 247.52 221.097 194.48 247.52 222.866 
198.9 247.52 224.744 203.32 247.52 227.048 207.249 247.52 229.84 
207.74 245.31 229.84 150.28 250.172 229.84 150.565 251.94 229.84 
154.7 251.94 226.279 159.12 251.94 223.769 163.54 251.94 221.703 
190.06 251.94 221.874 194.48 251.94 223.582 198.9 251.94 225.528 
203.32 251.94 227.998 205.776 251.94 229.84 154.7 256.36 227.333 
151.901 256.36 229.84 159.12 256.36 224.581 163.54 256.36 222.626 
167.96 256.36 221.196 185.64 256.36 221.577 190.06 256.36 222.866 
194.48 256.36 224.495 198.9 256.36 226.625 203.32 256.36 229.432 
203.85 256.36 229.84 154.7 260.78 229.091 153.938 260.78 229.84 
159.12 260.78 225.898 163.54 260.78 223.876 167.96 260.78 222.49 
172.38 260.78 221.68 176.8 260.78 221.48 181.22 260.78 221.865 
185.64 260.78 222.749 190.06 260.78 224.014 194.48 260.78 225.743 
198.9 260.78 227.998 201.552 260.78 229.84 203.32 257.38 229.84 
154.7 262.08 229.84 156.664 265.2 229.84 159.12 265.2 227.8 
163.54 265.2 225.477 167.96 265.2 224.016 172.38 265.2 223.185 
176.8 265.2 223.04 181.22 265.2 223.331 185.64 265.2 224.178 
190.06 265.2 225.42 194.48 265.2 227.247 198.708 265.2 229.84 
198.9 264.924 229.84 159.12 268.357 229.84 160.273 269.62 229.84 
163.54 269.62 227.597 167.96 269.62 225.873 172.38 269.62 224.952 
176.8 269.62 224.7 181.22 269.62 225.064 185.64 269.62 225.793 
190.06 269.62 227.165 194.48 269.62 229.312 195.322 269.62 229.84 
163.54 272.887 229.84 165.013 274.04 229.84 167.96 274.04 228.257 
172.38 274.04 227.129 176.8 274.04 226.78 181.22 274.04 227.007 
185.64 274.04 227.929 190.06 274.04 229.444 190.797 274.04 229.84 
194.48 270.551 229.84 167.96 276.162 229.84 172.38 278.106 229.84 
174.148 278.46 229.84 176.8 278.46 229.438 181.22 278.46 229.706 
181.773 278.46 229.84 185.64 277.115 229.84 190.06 274.643 229.84 
176.8 278.99 229.84 181.22 278.637 229.84 176.8 194.48 238.202 
176.8 193.96 238.68 175.032 194.48 238.68 181.22 194.48 237.633 
181.22 193.343 238.68 185.64 194.48 237.633 185.64 193.343 238.68 
190.06 194.48 238.196 190.06 193.96 238.68 192.024 194.48 238.68 
167.96 198.9 237.302 167.96 197.243 238.68 165.168 198.9 238.68 
172.38 198.9 235.733 172.38 195.26 238.68 176.8 198.9 234.806 
181.22 198.9 234.309 185.64 198.9 234.309 190.06 198.9 234.762 
194.48 195.111 238.68 194.48 198.9 235.56 198.9 198.9 236.958 
198.9 196.891 238.68 202.8 198.9 238.68 163.54 203.32 236.17 
163.54 199.931 238.68 159.474 203.32 238.68 167.96 203.32 234.309 
172.38 203.32 233.004 176.8 203.32 232.142 181.22 203.32 231.804 
185.64 203.32 231.734 190.06 203.32 232.118 194.48 203.32 232.818 
198.9 203.32 233.867 203.32 199.176 238.68 203.32 203.32 235.485 
207.74 203.32 237.711 207.74 202.101 238.68 209.277 203.32 238.68 
159.12 207.74 235.842 159.12 203.636 238.68 155.157 207.74 238.68 
163.54 207.74 233.629 167.96 207.74 231.958 172.38 207.74 230.66 
194.48 207.74 230.387 198.9 207.74 231.515 203.32 207.74 233.011 
207.74 207.74 234.936 212.16 206.083 238.68 212.16 207.74 237.605 
213.581 207.74 238.68 154.7 212.16 236.073 154.7 208.25 238.68 
151.523 212.16 238.68 159.12 212.16 233.456 163.54 212.16 231.361 
203.32 212.16 231.037 207.74 212.16 233.011 212.16 212.16 235.418 
216.442 212.16 238.68 150.28 216.58 236.985 150.28 213.89 238.68 
148.405 216.58 238.68 154.7 216.58 233.792 159.12 216.58 231.297 
207.74 216.58 231.515 212.16 216.58 233.965 216.58 212.436 238.68 
216.58 216.58 236.98 218.53 216.58 238.68 145.86 221 238.68 
150.28 221 234.702 154.7 221 231.827 207.74 221 230.485 
212.16 221 232.977 216.58 221 235.911 219.863 221 238.68 
145.86 225.42 236.47 143.766 225.42 238.68 150.28 225.42 232.892 
154.7 225.42 230.039 212.16 225.42 232.352 216.58 225.42 235.124 
220.877 225.42 238.68 145.86 229.84 234.958 142.324 229.84 238.68 
150.28 229.84 231.504 212.16 229.84 231.936 216.58 229.84 234.608 
221 226.157 238.68 221 229.84 238.083 221.65 229.84 238.68 
141.44 234.26 238.537 141.44 233.769 238.68 141.327 234.26 238.68 
145.86 234.26 233.807 150.28 234.26 230.457 212.16 234.26 231.663 
216.58 234.26 234.309 221 234.26 237.633 222.137 234.26 238.68 
141.44 238.68 237.838 140.793 238.68 238.68 145.86 238.68 233.127 
212.16 238.68 231.663 216.58 238.68 234.309 221 238.68 237.532 
222.263 238.68 238.68 141.44 243.1 237.557 140.578 243.1 238.68 
145.86 243.1 232.9 212.16 243.1 231.936 216.58 243.1 234.555 
221 243.1 237.866 221.884 243.1 238.68 141.44 247.52 237.825 
140.793 247.52 238.68 145.86 247.52 233.055 207.74 247.52 230.111 
212.16 247.52 232.483 216.58 247.52 235.164 221 247.52 238.559 
221.13 247.52 238.68 141.44 251.94 238.68 145.86 251.94 233.678 
150.28 251.94 230.053 207.74 251.94 230.912 212.16 251.94 233.226 
216.58 251.94 235.976 219.863 251.94 238.68 221 247.962 238.68 
142.492 256.36 238.68 145.86 256.36 234.751 150.28 256.36 231.026 
207.74 256.36 231.824 212.16 256.36 234.309 216.58 256.36 237.225 
218.321 256.36 238.68 145.86 260.78 236.537 144.047 260.78 238.68 
150.28 260.78 232.526 203.32 260.78 230.742 207.74 260.78 233.004 
212.16 260.78 235.56 216.304 260.78 238.68 216.58 260.191 238.68 
145.86 264.709 238.68 146.093 265.2 238.68 150.28 265.2 234.379 
154.7 265.2 231.134 198.9 265.2 229.93 203.32 265.2 232.027 
207.74 265.2 234.309 212.16 265.2 237.113 214.094 265.2 238.68 
150.28 269.62 237.048 148.765 269.62 238.68 154.7 269.62 233.353 
159.12 269.62 230.464 198.9 269.62 231.373 203.32 269.62 233.469 
207.74 269.62 235.872 211.59 269.62 238.68 212.16 268.638 238.68 
150.28 271.83 238.68 151.84 274.04 238.68 154.7 274.04 235.902 
159.12 274.04 232.751 163.54 274.04 230.436 194.48 274.04 231.166 
198.9 274.04 232.939 203.32 274.04 235.005 207.74 274.04 237.762 
208.919 274.04 238.68 154.7 277.78 238.68 155.236 278.46 238.68 
159.12 278.46 235.307 163.54 278.46 232.753 167.96 278.46 231.063 
172.38 278.46 230.022 185.64 278.46 230.453 190.06 278.46 231.503 
194.48 278.46 232.876 198.9 278.46 234.644 203.32 278.46 236.934 
205.846 278.46 238.68 207.74 275.808 238.68 159.12 282.88 238.408 
158.825 282.88 238.68 163.54 282.88 235.255 167.96 282.88 233.337 
172.38 282.88 232.276 176.8 282.88 231.785 181.22 282.88 231.92 
185.64 282.88 232.466 190.06 282.88 233.448 194.48 282.88 234.783 
[...]
POINT_DATA 3568
SCALARS scalars float
LOOKUP_TABLE default
100 100 100 100 100 100 100 100 100 
100 100 100 100 100 100 100 100 100 
100 100 100 100 100 100 100 100 100 
100 100 100 100 100 100 100 100 100 
100 100 100 100 100 100 100 100 100 
100 100 100 100 100 100 100 100 100 
100 100 100 100 100 100 100 100 100 
100 100 100 100 100 100 100 100 100 
100 100 100 100 100 100 100 100 100 
100 100 100 100 100 100 100 100 100 
100 100 100 100 100 100 100 100 100 
100 100 100 100 100 100 100 100 100 
100 100 100 100 100 100 100 100 100 
100 100 100 100 100 100 100 100 100 
100 100 100 100 100 100 100 100 100 
100 100 100 100 100 100 100 100 100 
100 100 100 100 100 100 100 100 100 
100 100 100 100 100 100 100 100 100 
100 100 100 100 100 100 100 100 100 
100 100 100 100 100 100 100 100 100 
100 100 100 100 100 100 100 100 100 
100 100 100 100 100 100 100 100 100 
100 100 100 100 100 100 100 100 100 
100 100 100 100 100 100 100 100 100 
100 100 100 100 100 100 100 100 100 
100 100 100 100 100 100 100 100 100 
100 100 100 100 100 100 100 100 100 
100 100 100 100 100 100 100 100 100 
100 100 100 100 100 100 100 100 100 
100 100 100 100 100 100 100 100 100 
100 100 100 100 100 100 100 100 100 
100 100 100 100 100 100 100 100 100 
100 100 100 100 100 100 100 100 100 
100 100 100 100 100 100 100 100 100 
100 100 100 100 100 100 100 100 100 
100 100 100 100 100 100 100 100 100 
100 100 100 100 100 100 100 100 100 
100 100 100 100 100 100 100 100 100 
100 100 100 100 100 100 100 100 100 
100 100 100 100 100 100 100 100 100 
100 100 100 100 100 100 100 100 100 
100 100 100 100 100 100 100 100 100 
100 100 100 100 100 100 100 100 100 
100 100 100 100 100 100 100 100 100 
100 100 100 100 100 100 100 100 100 
100 100 100 100 100 100 100 100 100 
100 100 100 100 100 100 100 100 100 
100 100 100 100 100 100 100 100 100 
100 100 100 100 100 100 100 100 100 
100 100 100 100 100 100 100 100 100 
100 100 100 100 100 100 100 100 100 
100 100 100 100 100 100 100 100 100 
100 100 100 100 100 100 100 100 100 
100 100 100 100 100 100 100 100 100 
100 100 100 100 100 100 100 100 100 
100 100 100 100 100 100 100 100 100 
100 100 100 100 100 100 100 100 100 
100 100 100 100 100 100 100 100 100 
100 100 100 100 100 100 100 100 100 
100 100 100 100 100 100 100 100 100 
100 100 100 100 100 100 100 100 100 
100 100 100 100 100 100 100 100 100 
100 100 100 100 100 100 100 100 100 
100 100 100 100 100 100 100 100 100 
100 100 100 100 100 100 100 100 100 
100 100 100 100 100 100 100 100 100 
100 100 100 100 100 100 100 100 100 
100 100 100 100 100 100 100 100 100 
100 100 100 100 100 100 100 100 100 
100 100 100 100 100 100 100 100 100 
100 100 100 100 100 100 100 100 100 
100 100 100 100 100 100 100 100 100 
100 100 100 100 100 100 100 100 100 
100 100 100 100 100 100 100 100 100 
100 100 100 100 100 100 100 100 100 
100 100 100 100 100 100 100 100 100 
100 100 100 100 100 100 100 100 100 
100 100 100 100 100 100 100 100 100 
100 100 100 100 100 100 100 100 100 
100 100 100 100 100 100 100 100 100 
100 100 100 100 100 100 100 100 100 
100 100 100 100 100 100 100 100 100 
100 100 100 100 100 100 100 100 100 
100 100 100 100 100 100 100 100 100 
100 100 100 100 100 100 100 100 100 
100 100 100 100 100 100 100 100 100 
100 100 100 100 100 100 100 100 100 
100 100 100 100 100 100 100 100 100 
100 100 100 100 100 100 100 100 100 
100 100 100 100 100 100 100 100 100 
100 100 100 100 100 100 100 100 100 
100 100 100 100 100 100 100 100 100 
100 100 100 100 100 100 100 100 100 
100 100 100 100 100 100 100 100 100 
100 100 100 100 100 100 100 100 100 
100 100 100 100 100 100 100 100 100 
100 100 100 100 100 100 100 100 100 
100 100 100 100 100 100 100 100 100 
100 100 100 100 100 100 100 100 100 
100 100 100 100 100 100 100 100 100 
100 100 100 100 100 100 100 100 100 
100 100 100 100 100 100 100 100 100 
100 100 100 100 100 100 100 100 100 
100 100 100 100 100 100 100 100 100 
100 100 100 100 100 100 100 100 100 
100 100 100 100 100 100 100 100 100 
100 100 100 100 100 100 100 100 100 
100 100 100 100 100 100 100 100 100 
100 100 100 100 100 100 100 100 100 
100 100 100 100 100 100 100 100 100 
100 100 100 100 100 100 100 100 100 
100 100 100 100 100 100 100 100 100 
100 100 100 100 100 100 100 100 100 
100 100 100 100 100 100 100 100 100 
100 100 100 100 100 100 100 100 100 
100 100 100 100 100 100 100 100 100 
100 100 100 100 100 100 100 100 100 
100 100 100 100 100 100 100 100 100 
100 100 100 100 100 100 100 100 100 
100 100 100 100 100 100 100 100 100 
100 100 100 100 100 100 100 100 100 
100 100 100 100 100 100 100 100 100 
100 100 100 100 100 100 100 100 100 
100 100 100 100 100 100 100 100 100 
100 100 100 100 100 100 100 100 100 
100 100 100 100 100 100 100 100 100 
100 100 100 100 100 100 100 100 100 
100 100 100 100 100 100 100 100 100 
100 100 100 100 100 100 100 100 100 
100 100 100 100 100 100 100 100 100 
100 100 100 100 100 100 100 100 100 
100 100 100 100 100 100 100 100 100 
100 100 100 100 100 100 100 100 100 
100 100 100 100 100 100 100 100 100 
100 100 100 100 100 100 100 100 100 
100 100 100 100 100 100 100 100 100 
100 100 100 100 100 100 100 100 100 
100 100 100 100 100 100 100 100 100 
100 100 100 100 100 100 100 100 100 
100 100 100 100 100 100 100 100 100 
100 100 100 100 100 100 100 100 100 
100 100 100 100 100 100 100 100 100 
100 100 100 100 100 100 100 100 100 
100 100 100 100 100 100 100 100 100 
100 100 100 100 100 100 100 100 100 
100 100 100 100 100 100 100 100 100 
100 100 100 100 100 100 100 100 100 
100 100 100 100 100 100 100 100 100 
100 100 100 100 100 100 100 100 100 
100 100 100 100 100 100 100 100 100 
100 100 100 100 100 100 100 100 100 
100 100 100 100 100 100 100 100 100 
100 100 100 100 100 100 100 100 100 
100 100 100 100 100 100 100 100 100 
100 100 100 100 100 100 100 100 100 
100 100 100 100 100 100 100 100 100 
100 100 100 100 100 100 100 100 100 
100 100 100 100 100 100 100 100 100 
100 100 100 100 100 100 100 100 100 
100 100 100 100 100 100 100 100 100 
100 100 100 100 100 100 100 100 100 
100 100 100 100 100 100 100 100 100 
100 100 100 100 100 100 100 100 100 
100 100 100 100 100 100 100 100 100 
100 100 100 100 100 100 100 100 100 
100 100 100 100 100 100 100 100 100 
100 100 100 100 100 100 100 100 100 
100 100 100 100 100 100 100 100 100 
100 100 100 100 100 100 100 100 100 
100 100 100 100 100 100 100 100 100 
100 100 100 100 100 100 100 100 100 
100 100 100 100 100 100 100 100 100 
100 100 100 100 100 100 100 100 100 
100 100 100 100 100 100 100 100 100 
100 100 100 100 100 100 100 100 100 
100 100 100 100 100 100 100 100 100 
100 100 100 100 100 100 100 100 100 
100 100 100 100 100 100 100 100 100 
100 100 100 100 100 100 100 100 100 
100 100 100 100 100 100 100 100 100 
100 100 100 100 100 100 100 100 100 
100 100 100 100 100 100 100 100 100 
100 100 100 100 100 100 100 100 100 
100 100 100 100 100 100 100 100 100 
100 100 100 100 100 100 100 100 100 
100 100 100 100 100 100 100 100 100 
100 100 100 100 100 100 100 100 100 
100 100 100 100 100 100 100 100 100 
100 100 100 100 100 100 100 100 100 
100 100 100 100 100 100 100 100 100 
100 100 100 100 100 100 100 100 100 
100 100 100 100 100 100 100 100 100 
100 100 100 100 100 100 100 100 100 
100 100 100 100 100 100 100 100 100 
100 100 100 100 100 100 100 100 100 
100 100 100 100 100 100 100 100 100 
100 100 100 100 100 100 100 100 100 
100 100 100 100 100 100 100 100 100 
100 100 100 100 100 100 100 100 100 
100 100 100 100 100 100 100 100 100 
100 100 100 100 100 100 100 100 100 
100 100 100 100 100 100 100 100 100 
100 100 100 100 100 100 100 100 100 
100 100 100 100 100 100 100 100 100 
100 100 100 100 100 100 100 100 100 
100 100 100 100 100 100 100 100 100 
100 100 100 100 100 100 100 100 100 
100 100 100 100 100 100 100 100 100 
100 100 100 100 100 100 100 100 100 
100 100 100 100 100 100 100 100 100 
100 100 100 100 100 100 100 100 100 
100 100 100 100 100 100 100 100 100 
100 100 100 100 100 100 100 100 100 
100 100 100 100 100 100 100 100 100 
100 100 100 100 100 100 100 100 100 
100 100 100 100 100 100 100 100 100 
100 100 100 100 100 100 100 100 100 
100 100 100 100 100 100 100 100 100 
100 100 100 100 100 100 100 100 100 
100 100 100 100 100 100 100 100 100 
100 100 100 100 100 100 100 100 100 
100 100 100 100 100 100 100 100 100 
100 100 100 100 100 100 100 100 100 
100 100 100 100 100 100 100 100 100 
100 100 100 100 100 100 100 100 100 
100 100 100 100 100 100 100 100 100 
100 100 100 100 100 100 100 100 100 
100 100 100 100 100 100 100 100 100 
100 100 100 100 100 100 100 100 100 
100 100 100 100 100 100 100 100 100 
100 100 100 100 100 100 100 100 100 
100 100 100 100 100 100 100 100 100 
100 100 100 100 100 100 100 100 100 
100 100 100 100 100 100 100 100 100 
100 100 100 100 100 100 100 100 100 
100 100 100 100 100 100 100 100 100 
100 100 100 100 100 100 100 100 100 
100 100 100 100 100 100 100 100 100 
100 100 100 100 100 100 100 100 100 
100 100 100 100 100 100 100 100 100 
100 100 100 100 100 100 100 100 100 
100 100 100 100 100 100 100 100 100 
100 100 100 100 100 100 100 100 100 
100 100 100 100 100 100 100 100 100 
100 100 100 100 100 100 100 100 100 
100 100 100 100 100 100 100 100 100 
100 100 100 100 100 100 100 100 100 
100 100 100 100 100 100 100 100 100 
100 100 100 100 100 100 100 100 100 
100 100 100 100 100 100 100 100 100 
100 100 100 100 100 100 100 100 100 
100 100 100 100 100 100 100 100 100 
100 100 100 100 100 100 100 100 100 
100 100 100 100 100 100 100 100 100 
100 100 100 100 100 100 100 100 100 
100 100 100 100 100 100 100 100 100 
100 100 100 100 100 100 100 100 100 
100 100 100 100 100 100 100 100 100 
100 100 100 100 100 100 100 100 100 
100 100 100 100 100 100 100 100 100 
100 100 100 100 100 100 100 100 100 
100 100 100 100 100 100 100 100 100 
100 100 100 100 100 100 100 100 100 
100 100 100 100 100 100 100 100 100 
100 100 100 100 100 100 100 100 100 
100 100 100 100 100 100 100 100 100 
100 100 100 100 100 100 100 100 100 
100 100 100 100 100 100 100 100 100 
100 100 100 100 100 100 100 100 100 
100 100 100 100 100 100 100 100 100 
100 100 100 100 100 100 100 100 100 
100 100 100 100 100 100 100 100 100 
100 100 100 100 100 100 100 100 100 
100 100 100 100 100 100 100 100 100 
100 100 100 100 100 100 100 100 100 
100 100 100 100 100 100 100 100 100 
100 100 100 100 100 100 100 100 100 
100 100 100 100 100 100 100 100 100 
100 100 100 100 100 100 100 100 100 
100 100 100 100 100 100 100 100 100 
100 100 100 100 100 100 100 100 100 
100 100 100 100 100 100 100 100 100 
100 100 100 100 100 100 100 100 100 
100 100 100 100 100 100 100 100 100 
100 100 100 100 100 100 100 100 100 
100 100 100 100 100 100 100 100 100 
100 100 100 100 100 100 100 100 100 
100 100 100 100 100 100 100 100 100 
100 100 100 100 100 100 100 100 100 
100 100 100 100 100 100 100 100 100 
100 100 100 100 100 100 100 100 100 
100 100 100 100 100 100 100 100 100 
100 100 100 100 100 100 100 100 100 
100 100 100 100 100 100 100 100 100 
100 100 100 100 100 100 100 100 100 
100 100 100 100 100 100 100 100 100 
100 100 100 100 100 100 100 100 100 
100 100 100 100 100 100 100 100 100 
100 100 100 100 100 100 100 100 100 
100 100 100 100 100 100 100 100 100 
100 100 100 100 100 100 100 100 100 
100 100 100 100 100 100 100 100 100 
100 100 100 100 100 100 100 100 100 
100 100 100 100 100 100 100 100 100 
100 100 100 100 100 100 100 100 100 
100 100 100 100 100 100 100 100 100 
100 100 100 100 100 100 100 100 100 
100 100 100 100 100 100 100 100 100 
100 100 100 100 100 100 100 100 100 
100 100 100 100 100 100 100 100 100 
100 100 100 100 100 100 100 100 100 
100 100 100 100 100 100 100 100 100 
100 100 100 100 100 100 100 100 100 
100 100 100 100 100 100 100 100 100 
100 100 100 100 100 100 100 100 100 
100 100 100 100 100 100 100 100 100 
100 100 100 100 100 100 100 100 100 
100 100 100 100 100 100 100 100 100 
100 100 100 100 100 100 100 100 100 
100 100 100 100 100 100 100 100 100 
100 100 100 100 100 100 100 100 100 
100 100 100 100 100 100 100 100 100 
100 100 100 100 100 100 100 100 100 
100 100 100 100 100 100 100 100 100 
100 100 100 100 100 100 100 100 100 
100 100 100 100 100 100 100 100 100 
100 100 100 100 100 100 100 100 100 
100 100 100 100 100 100 100 100 100 
100 100 100 100 100 100 100 100 100 
100 100 100 100 100 100 100 100 100 
100 100 100 100 100 100 100 100 100 
100 100 100 100 100 100 100 100 100 
100 100 100 100 100 100 100 100 100 
100 100 100 100 100 100 100 100 100 
100 100 100 100 100 100 100 100 100 
100 100 100 100 100 100 100 100 100 
100 100 100 100 100 100 100 100 100 
100 100 100 100 100 100 100 100 100 
100 100 100 100 100 100 100 100 100 
100 100 100 100 100 100 100 100 100 
100 100 100 100 100 100 100 100 100 
100 100 100 100 100 100 100 100 100 
100 100 100 100 100 100 100 100 100 
100 100 100 100 100 100 100 100 100 
100 100 100 100 100 100 100 100 100 
100 100 100 100 100 100 100 100 100 
100 100 100 100 100 100 100 100 100 
100 100 100 100 100 100 100 100 100 
100 100 100 100 100 100 100 100 100 
100 100 100 100 100 100 100 100 100 
100 100 100 100 100 100 100 100 100 
100 100 100 100 100 100 100 100 100 
100 100 100 100 100 100 100 100 100 
100 100 100 100 100 100 100 100 100 
100 100 100 100 100 100 100 100 100 
100 100 100 100 100 100 100 100 100 
100 100 100 100 100 100 100 100 100 
100 100 100 100 100 100 100 100 100 
100 100 100 100 100 100 100 100 100 
100 100 100 100 100 100 100 100 100 
100 100 100 100 100 100 100 100 100 
100 100 100 100 100 100 100 100 100 
100 100 100 100 100 100 100 100 100 
100 100 100 100 100 100 100 100 100 
100 100 100 100 100 100 100 100 100 
100 100 100 100 100 100 100 100 100 
100 100 100 100 100 100 100 100 100 
100 100 100 100 100 100 100 100 100 
100 100 100 100 100 100 100 100 100 
100 100 100 100 100 100 100 100 100 
100 100 100 100 100 100 100 100 100 
100 100 100 100 100 100 100 100 100 
100 100 100 100 100 100 100 100 100 
100 100 100 100 100 100 100 100 100 
100 100 100 100 100 100 100 100 100 
100 100 100 100 100 100 100 100 100 
100 100 100 100 100 100 100 100 100 
100 100 100 100 100 100 100 100 100 
100 100 100 100 100 100 100 100 100 
100 100 100 100 100 100 100 100 100 
100 100 100 100 100 100 100 100 100 
100 100 100 100 100 100 100 100 100 
100 100 100 100 100 100 100 100 100 
100 100 100 100 100 100 100 100 100 
100 100 100 100 100 100 100 100 100 
100 100 100 100 100 100 100 100 100 
100 100 100 100 100 100 100 100 100 
100 100 100 100 100 100 100 100 100 
100 100 100 100 100 100 100 100 100 
100 100 100 100 100 100 100 100 100 
100 100 100 100 100 100 100 100 100 
100 100 100 100 100 100 100 100 100 
100 100 100 100 100 100 100 100 100 
100 100 100 100 100 100 100 100 100 
100 100 100 100 100 100 100 100 100 
100 100 100 100 100 100 100 100 100 
100 100 100 100 
NORMALS normals float
-0.227886 -0.323511 -0.918373 -0.231109 -0.338149 -0.912274 -0.255361 -0.325282 -0.910485 
-0.0972807 -0.307918 -0.946426 -0.116339 -0.356069 -0.927189 0.0357208 -0.285767 -0.957633 
0.0163087 -0.352075 -0.93583 0.169727 -0.242893 -0.955089 0.14722 -0.289181 -0.945886 
0.256941 -0.208843 -0.943592 -0.345578 -0.251463 -0.90407 -0.345567 -0.269785 -0.898777 
-0.363629 -0.2491 -0.897621 -0.215281 -0.241971 -0.946099 -0.0807011 -0.214168 -0.973457 
0.0769895 -0.191888 -0.978392 0.217968 -0.14333 -0.965374 0.315715 -0.145229 -0.937674 
0.333949 -0.0995637 -0.937318 0.353264 -0.0908393 -0.931103 -0.343895 -0.151695 -0.926674 
-0.423292 -0.150594 -0.89339 -0.188377 -0.145958 -0.97119 -0.0468075 -0.111501 -0.992661 
0.106974 -0.0797481 -0.991058 0.259401 -0.0380105 -0.965021 0.376674 0 -0.926346 
0.399146 0.00736432 -0.916858 -0.337154 -0.0376198 -0.940697 -0.445608 -0.0478413 -0.893949 
-0.171517 -0.0234231 -0.984903 -0.0145236 0 -0.999894 0.146679 0.0322162 -0.988659 
0.293421 0.0544576 -0.954431 0.388235 0.0729978 -0.918665 0.402317 0.0763894 -0.912308 
-0.318178 0.0772095 -0.944882 -0.44685 0.0650895 -0.892238 -0.150459 0.10315 -0.98322 
0.00895235 0.111619 -0.993711 0.159814 0.141104 -0.97701 0.301066 0.139856 -0.943292 
0.401209 0.147987 -0.903953 0.403582 0.129393 -0.905748 -0.298336 0.20271 -0.932687 
-0.386999 0.193499 -0.901549 -0.141056 0.217547 -0.965803 0.0239871 0.222568 -0.974622 
0.17917 0.240862 -0.953878 0.301035 0.241347 -0.922567 0.345602 0.238689 -0.907517 
-0.295151 0.287112 -0.911292 -0.257067 0.306233 -0.916591 -0.13164 0.302901 -0.943887 
0.0361898 0.321831 -0.946105 0.18308 0.305424 -0.93445 0.227542 0.307557 -0.923923 
0.299403 0.274452 -0.913802 -0.133298 0.342767 -0.929915 0.0297909 0.365616 -0.930289 
0.180525 0.325331 -0.928208 -0.152583 -0.52929 -0.834608 -0.152003 -0.530637 -0.833858 
-0.162168 -0.52934 -0.832767 -0.0519938 -0.544785 -0.836962 -0.049055 -0.549123 -0.834301 
0.0388197 -0.547545 -0.835875 0.0389307 -0.551899 -0.833002 0.122355 -0.543211 -0.830633 
0.123079 -0.545445 -0.829061 0.144458 -0.541718 -0.828054 -0.330013 -0.490543 -0.80651 
-0.330078 -0.492901 -0.805045 -0.3381 -0.490357 -0.803267 -0.246338 -0.497818 -0.831562 
-0.24854 -0.517104 -0.819043 -0.148295 -0.503696 -0.851057 -0.0630313 -0.504549 -0.861079 
0.0339846 -0.4998 -0.865474 0.134361 -0.496267 -0.85771 0.215951 -0.521534 -0.82545 
0.229954 -0.477733 -0.847875 0.330921 -0.446242 -0.83148 0.325799 -0.46006 -0.825954 
0.354429 -0.438065 -0.826123 -0.406235 -0.447214 -0.796852 -0.406042 -0.458889 -0.790285 
-0.428164 -0.442897 -0.78773 -0.330325 -0.457077 -0.825812 -0.245678 -0.460393 -0.853042 
-0.144061 -0.468413 -0.871686 -0.0511357 -0.459085 -0.88692 0.0407108 -0.444562 -0.894823 
0.144284 -0.427458 -0.892447 0.258644 -0.394176 -0.881889 0.362881 -0.362881 -0.858274 
0.439444 -0.355545 -0.82491 0.447452 -0.333285 -0.829884 0.464224 -0.324818 -0.824008 
-0.484473 -0.397725 -0.779166 -0.483094 -0.405094 -0.776221 -0.494457 -0.395566 -0.773977 
-0.416992 -0.414017 -0.80914 -0.329194 -0.422606 -0.844414 -0.2405 -0.424013 -0.873139 
-0.134622 -0.430792 -0.892354 -0.025563 -0.41635 -0.908845 0.070615 -0.382118 -0.921412 
0.185609 -0.341387 -0.921414 0.292497 -0.305109 -0.906286 0.391457 -0.267501 -0.880457 
0.48152 -0.23484 -0.844387 0.532465 -0.211045 -0.81972 -0.493356 -0.351851 -0.795488 
-0.546537 -0.337633 -0.766356 -0.411022 -0.360279 -0.837413 -0.326704 -0.373674 -0.86812 
-0.240534 -0.386215 -0.890495 -0.124203 -0.37261 -0.919639 0.0122426 -0.362299 -0.931982 
0.126921 -0.319 -0.939218 0.227807 -0.263776 -0.937297 0.332618 -0.212998 -0.918693 
0.423366 -0.169438 -0.889973 0.501848 -0.140517 -0.853465 0.567267 -0.133704 -0.812607 
0.569278 -0.12424 -0.812703 0.570549 -0.123903 -0.811863 -0.564744 -0.273185 -0.778739 
-0.553167 -0.327426 -0.766028 -0.5927 -0.262107 -0.761582 -0.497582 -0.2852 -0.81919 
-0.43386 -0.29189 -0.852388 -0.33717 -0.321248 -0.884938 0.293069 -0.19031 -0.936959 
0.378382 -0.131066 -0.916323 0.453631 -0.0879534 -0.886839 0.520393 -0.0660692 -0.851367 
0.571587 -0.0600174 -0.818344 0.575946 -0.0641589 -0.814966 -0.578339 -0.202026 -0.790386 
-0.624267 -0.191927 -0.757268 -0.505762 -0.219467 -0.83429 -0.439199 -0.229196 -0.868662 
0.42028 -0.0499793 -0.906017 0.475391 -0.0259599 -0.879392 0.523826 -0.00695344 -0.851797 
0.562095 -0.0182434 -0.826871 0.567296 -0.0235249 -0.823178 -0.642739 -0.114107 -0.757539 
-0.641145 -0.13292 -0.755821 -0.646509 -0.113038 -0.754486 -0.586972 -0.112935 -0.801692 
-0.520476 -0.130414 -0.843858 -0.458643 -0.147685 -0.876262 0.440246 0.025599 -0.897512 
0.48596 0.043004 -0.872922 0.525449 0.0506236 -0.849318 0.552487 0.0422252 -0.832451 
0.55934 0.0389341 -0.828024 -0.652193 -0.0125859 -0.757949 -0.66106 -0.0105717 -0.750259 
-0.594512 -0.0304057 -0.803512 -0.539454 -0.0351818 -0.84128 -0.45733 -0.0490486 -0.887943 
0.455513 0.0911025 -0.885556 0.494712 0.103371 -0.862887 0.525598 0.102148 -0.844578 
0.544644 0.103085 -0.832308 0.547622 0.102579 -0.830414 -0.656711 0.0717568 -0.750721 
-0.66101 0.072878 -0.746829 -0.596522 0.0581568 -0.800487 -0.536321 0.0710951 -0.841014 
-0.461934 0.062832 -0.884686 0.407368 0.14827 -0.901148 0.46224 0.158328 -0.872506 